
                                 *****************
                                 * O   R   C   A *
                                 *****************

           --- An Ab Initio, DFT and Semiempirical electronic structure package ---

                  #######################################################
                  #                        -***-                        #
                  #          Department of theory and spectroscopy      #
                  #               Directorship: Frank Neese             #
                  #        Max Planck Institute fuer Kohlenforschung    #
                  #                Kaiser Wilhelm Platz 1               #
                  #                 D-45470 Muelheim/Ruhr               #
                  #                      Germany                        #
                  #                                                     #
                  #                  All rights reserved                #
                  #                        -***-                        #
                  #######################################################


                         Program Version 4.2.0 -  RELEASE  -


 With contributions from (in alphabetic order):
   Daniel Aravena         : Magnetic Suceptibility
   Michael Atanasov       : Ab Initio Ligand Field Theory (pilot matlab implementation)
   Alexander A. Auer      : GIAO ZORA, VPT2
   Ute Becker             : Parallelization
   Giovanni Bistoni       : ED, misc. LED, open-shell LED, HFLED
   Martin Brehm           : Molecular dynamics
   Dmytro Bykov           : SCF Hessian
   Vijay G. Chilkuri      : MRCI spin determinant printing, contributions to CSF-ICE
   Dipayan Datta          : RHF DLPNO-CCSD density
   Achintya Kumar Dutta   : EOM-CC, STEOM-CC
   Dmitry Ganyushin       : Spin-Orbit,Spin-Spin,Magnetic field MRCI
   Miquel Garcia          : C-PCM Hessian, Gaussian charge scheme
   Yang Guo               : DLPNO-NEVPT2, CIM, IAO-localization
   Andreas Hansen         : Spin unrestricted coupled pair/coupled cluster methods
   Benjamin Helmich-Paris : CASSCF linear response (MC-RPA)
   Lee Huntington         : MR-EOM, pCC
   Robert Izsak           : Overlap fitted RIJCOSX, COSX-SCS-MP3, EOM
   Christian Kollmar      : KDIIS, OOCD, Brueckner-CCSD(T), CCSD density
   Simone Kossmann        : Meta GGA functionals, TD-DFT gradient, OOMP2, MP2 Hessian
   Martin Krupicka        : AUTO-CI
   Lucas Lang             : DCDCAS
   Dagmar Lenk            : GEPOL surface, SMD
   Dimitrios Liakos       : Extrapolation schemes; Compound Job, initial MDCI parallelization
   Dimitrios Manganas     : Further ROCIS development; embedding schemes
   Dimitrios Pantazis     : SARC Basis sets
   Taras Petrenko         : DFT Hessian,TD-DFT gradient, ASA, ECA, R-Raman, ABS, FL, XAS/XES, NRVS
   Peter Pinski           : DLPNO-MP2, DLPNO-MP2 Gradient
   Christoph Reimann      : Effective Core Potentials
   Marius Retegan         : Local ZFS, SOC
   Christoph Riplinger    : Optimizer, TS searches, QM/MM, DLPNO-CCSD(T), (RO)-DLPNO pert. Triples
   Tobias Risthaus        : Range-separated hybrids, TD-DFT gradient, RPA, STAB
   Michael Roemelt        : Original ROCIS implementation
   Masaaki Saitow         : Open-shell DLPNO-CCSD energy and density
   Barbara Sandhoefer     : DKH picture change effects
   Avijit Sen             : IP-ROCIS
   Kantharuban Sivalingam : CASSCF convergence, NEVPT2, FIC-MRCI
   Bernardo de Souza      : ESD, SOC TD-DFT
   Georgi Stoychev        : AutoAux, RI-MP2 NMR
   Willem Van den Heuvel  : Paramagnetic NMR
   Boris Wezisla          : Elementary symmetry handling
   Frank Wennmohs         : Technical directorship


 We gratefully acknowledge several colleagues who have allowed us to
 interface, adapt or use parts of their codes:
   Stefan Grimme, W. Hujo, H. Kruse,             : VdW corrections, initial TS optimization,
                  C. Bannwarth                     DFT functionals, gCP, sTDA/sTD-DF
   Ed Valeev, F. Pavosevic, A. Kumar             : LibInt (2-el integral package), F12 methods
   Garnet Chan, S. Sharma, J. Yang, R. Olivares  : DMRG
   Ulf Ekstrom                                   : XCFun DFT Library
   Mihaly Kallay                                 : mrcc  (arbitrary order and MRCC methods)
   Andreas Klamt, Michael Diedenhofen            : otool_cosmo (COSMO solvation model)
   Jiri Pittner, Ondrej Demel                    : Mk-CCSD
   Frank Weinhold                                : gennbo (NPA and NBO analysis)
   Christopher J. Cramer and Donald G. Truhlar   : smd solvation model
   Lars Goerigk                                  : TD-DFT with DH, B97 family of functionals
   V. Asgeirsson, H. Jonsson                     : NEB implementation
   FAccTs GmbH                                   : IRC, NEB, NEB-TS, Multilevel, MM, QM/MM, CI optimization
   S Lehtola, MJT Oliveira, MAL Marques          : LibXC Library


 Your calculation uses the libint2 library for the computation of 2-el integrals
 For citations please refer to: http://libint.valeyev.net

 Your ORCA version has been built with support for libXC version: 4.2.3
 For citations please refer to: https://tddft.org/programs/libxc/

 This ORCA versions uses:
   CBLAS   interface :  Fast vector & matrix operations
   LAPACKE interface :  Fast linear algebra routines
   SCALAPACK package :  Parallel linear algebra routines


Your calculation utilizes the geometrical counterpoise correction gCP
Please cite in your paper:
H.Kruse, S. Grimme J.Chem.Phys., 136, (2012), 154101 
   

Your calculation utilizes the atom-pairwise dispersion correction
with the Becke-Johnson damping scheme (D3BJ)
Cite in your paper:
S.Grimme, S.Ehrlich, L.Goerigk, J Comput Chem, (2011), 32, 1456–1465 
S.Grimme, J.Antony, S.Ehrlich and H.Krieg, J.Chem.Phys., 132, (2010), 154104 
   

----- Orbital basis set information -----
Your calculation utilizes the basis: MINIX,
   a combination of small basis sets by S. Grimme (see manual for definitions).

================================================================================
                                        WARNINGS
                       Please study these warnings very carefully!
================================================================================


WARNING: Geometry Optimization
  ===> : Switching off AutoStart
         For restart on a previous wavefunction, please use MOREAD

INFO   : the flag for use of LIBINT has been found!

================================================================================
                                       INPUT FILE
================================================================================
NAME = orca_input.in
|  1> # Test redundant internal optimization for: agonist1.mol2
|  2> #
|  3> ! opt HF-3c conv
|  4> ! PrintBasis 
|  5> %output
|  6>  print[P_MOs]1
|  7>  end #output
|  8> * xyz 0 1
|  9>   N1      -0.32410595   -1.56409109   -0.68484147 
| 10>   C2       0.51619871   -0.92255889    0.39333767 
| 11>   C3      -0.05336965    0.61267627    0.47845401 
| 12>   C4       2.00797538   -0.88688004    0.06270463 
| 13>   O5       2.69830624   -0.28319649    1.12419210 
| 14>   O6      -1.06325203    0.72557233   -0.23968885 
| 15>   O7       0.57717009    1.36324743    1.19188943 
| 16>   H8      -1.07558906   -0.76741519   -0.92753767 
| 17>   H9       0.22083058   -1.78317718   -1.51827830 
| 18>   H10     -0.79645065   -2.40454606   -0.35645507 
| 19>   H11      0.33374238   -1.39226605    1.37808774 
| 20>   H12      2.21663728   -0.32075603   -0.86665241 
| 21>   H13      2.45756376   -1.89548276   -0.00609690 
| 22>   H14      2.21850710    0.55924712    1.38846343 
| 23>  
| 24> *
| 25> %elprop
| 26> Quadrupole True
| 27> end
| 28> %maxcore 6000
| 29> %pal
| 30> nprocs 10                
| 31> endd                         ****END OF INPUT****
================================================================================

                       *****************************
                       * Geometry Optimization Run *
                       *****************************

Geometry optimization settings:
Update method            Update   .... BFGS
Choice of coordinates    CoordSys .... Z-matrix Internals
Initial Hessian          InHess   .... Almoef's Model

Convergence Tolerances:
Energy Change            TolE     ....  5.0000e-06 Eh
Max. Gradient            TolMAXG  ....  3.0000e-04 Eh/bohr
RMS Gradient             TolRMSG  ....  1.0000e-04 Eh/bohr
Max. Displacement        TolMAXD  ....  4.0000e-03 bohr
RMS Displacement         TolRMSD  ....  2.0000e-03 bohr
Strict Convergence                ....  False
------------------------------------------------------------------------------
                        ORCA OPTIMIZATION COORDINATE SETUP
------------------------------------------------------------------------------

The optimization will be done in new redundant internal coordinates
Making redundant internal coordinates   ...  (new redundants) done
Evaluating the initial hessian          ...  (Almloef) done
Evaluating the coordinates              ...  done
Calculating the B-matrix                .... done
Calculating the G-matrix                .... done
Diagonalizing the G-matrix              .... done
The first mode is                       ....   26
The number of degrees of freedom        ....   36

    -----------------------------------------------------------------
                    Redundant Internal Coordinates


    -----------------------------------------------------------------
         Definition                    Initial Value    Approx d2E/dq
    -----------------------------------------------------------------
      1. B(C   1,N   0)                  1.5100         0.360080   
      2. B(C   2,C   1)                  1.6397         0.249670   
      3. B(C   3,C   1)                  1.5284         0.375785   
      4. B(O   4,C   3)                  1.4028         0.533964   
      5. B(O   5,C   2)                  1.2443         0.955643   
      6. B(O   6,C   2)                  1.2124         1.074523   
      7. B(H   7,N   0)                  1.1217         0.287016   
      8. B(H   8,N   0)                  1.0196         0.417723   
      9. B(H   9,N   0)                  1.0185         0.419428   
     10. B(H  10,C   1)                  1.1062         0.339312   
     11. B(H  11,C   3)                  1.1080         0.337016   
     12. B(H  12,C   3)                  1.1064         0.339033   
     13. B(H  13,O   4)                  1.0049         0.440945   
     14. A(C   1,N   0,H   8)          112.1802         0.325566   
     15. A(H   7,N   0,H   8)          109.4997         0.282695   
     16. A(H   7,N   0,H   9)          110.1899         0.282873   
     17. A(C   1,N   0,H   7)          103.0353         0.306302   
     18. A(C   1,N   0,H   9)          112.2379         0.325784   
     19. A(H   8,N   0,H   9)          109.5185         0.300061   
     20. A(C   2,C   1,H  10)          107.1013         0.300934   
     21. A(C   2,C   1,C   3)          109.1725         0.339770   
     22. A(N   0,C   1,H  10)          111.3120         0.317353   
     23. A(N   0,C   1,C   3)          113.4914         0.359198   
     24. A(C   3,C   1,H  10)          111.3141         0.321483   
     25. A(N   0,C   1,C   2)          103.9779         0.335315   
     26. A(O   5,C   2,O   6)          134.8726         0.512945   
     27. A(C   1,C   2,O   6)          115.4377         0.404471   
     28. A(C   1,C   2,O   5)          109.6885         0.396209   
     29. A(H  11,C   3,H  12)          109.6991         0.285141   
     30. A(O   4,C   3,H  12)          103.8507         0.338606   
     31. A(C   1,C   3,H  12)          112.8789         0.321440   
     32. A(O   4,C   3,H  11)          108.7920         0.338269   
     33. A(C   1,C   3,H  11)          112.1588         0.321126   
     34. A(C   1,C   3,O   4)          109.0674         0.384401   
     35. A(C   3,O   4,H  13)          108.9550         0.350818   
     36. D(H  10,C   1,N   0,H   7)    109.4151         0.011919   
     37. D(C   3,C   1,N   0,H   8)     -6.4021         0.011919   
     38. D(H  10,C   1,N   0,H   9)     -9.0998         0.011919   
     39. D(H  10,C   1,N   0,H   8)   -132.9135         0.011919   
     40. D(C   3,C   1,N   0,H   7)   -124.0735         0.011919   
     41. D(C   2,C   1,N   0,H   7)     -5.5703         0.011919   
     42. D(C   2,C   1,N   0,H   8)    112.1010         0.011919   
     43. D(C   3,C   1,N   0,H   9)    117.4116         0.011919   
     44. D(C   2,C   1,N   0,H   9)   -124.0853         0.011919   
     45. D(O   6,C   2,C   1,C   3)    -51.0827         0.005253   
     46. D(O   6,C   2,C   1,N   0)   -172.5119         0.005253   
     47. D(O   5,C   2,C   1,H  10)   -110.7866         0.005253   
     48. D(O   5,C   2,C   1,N   0)      7.1469         0.005253   
     49. D(O   6,C   2,C   1,H  10)     69.5546         0.005253   
     50. D(O   5,C   2,C   1,C   3)    128.5761         0.005253   
     51. D(H  12,C   3,C   1,H  10)     61.7681         0.011268   
     52. D(H  12,C   3,C   1,N   0)    -64.7422         0.011268   
     53. D(H  11,C   3,C   1,H  10)   -173.6979         0.011268   
     54. D(H  11,C   3,C   1,C   2)    -55.6734         0.011268   
     55. D(H  11,C   3,C   1,N   0)     59.7918         0.011268   
     56. D(O   4,C   3,C   1,H  10)    -53.1153         0.011268   
     57. D(H  12,C   3,C   1,C   2)    179.7926         0.011268   
     58. D(O   4,C   3,C   1,C   2)     64.9092         0.011268   
     59. D(O   4,C   3,C   1,N   0)   -179.6256         0.011268   
     60. D(H  13,O   4,C   3,H  12)   -167.6040         0.022657   
     61. D(H  13,O   4,C   3,H  11)     75.6124         0.022657   
     62. D(H  13,O   4,C   3,C   1)    -47.0137         0.022657   
    -----------------------------------------------------------------

Number of atoms                         .... 14
Number of degrees of freedom            .... 62

         *************************************************************
         *                GEOMETRY OPTIMIZATION CYCLE   1            *
         *************************************************************
---------------------------------
CARTESIAN COORDINATES (ANGSTROEM)
---------------------------------
  N     -0.324106   -1.564091   -0.684841
  C      0.516199   -0.922559    0.393338
  C     -0.053370    0.612676    0.478454
  C      2.007975   -0.886880    0.062705
  O      2.698306   -0.283196    1.124192
  O     -1.063252    0.725572   -0.239689
  O      0.577170    1.363247    1.191889
  H     -1.075589   -0.767415   -0.927538
  H      0.220831   -1.783177   -1.518278
  H     -0.796451   -2.404546   -0.356455
  H      0.333742   -1.392266    1.378088
  H      2.216637   -0.320756   -0.866652
  H      2.457564   -1.895483   -0.006097
  H      2.218507    0.559247    1.388463

----------------------------
CARTESIAN COORDINATES (A.U.)
----------------------------
  NO LB      ZA    FRAG     MASS         X           Y           Z
   0 N     7.0000    0    14.007   -0.612471   -2.955704   -1.294163
   1 C     6.0000    0    12.011    0.975474   -1.743384    0.743300
   2 C     6.0000    0    12.011   -0.100854    1.157790    0.904147
   3 C     6.0000    0    12.011    3.794524   -1.675960    0.118495
   4 O     8.0000    0    15.999    5.099060   -0.535164    2.124415
   5 O     8.0000    0    15.999   -2.009255    1.371133   -0.452946
   6 O     8.0000    0    15.999    1.090693    2.576164    2.252345
   7 H     1.0000    0     1.008   -2.032569   -1.450205   -1.752792
   8 H     1.0000    0     1.008    0.417309   -3.369717   -2.869130
   9 H     1.0000    0     1.008   -1.505074   -4.543934   -0.673602
  10 H     1.0000    0     1.008    0.630682   -2.631002    2.604208
  11 H     1.0000    0     1.008    4.188837   -0.606141   -1.637736
  12 H     1.0000    0     1.008    4.644122   -3.581943   -0.011521
  13 H     1.0000    0     1.008    4.192371    1.056824    2.623816

--------------------------------
INTERNAL COORDINATES (ANGSTROEM)
--------------------------------
 N      0   0   0     0.000000000000     0.00000000     0.00000000
 C      1   0   0     1.510015146674     0.00000000     0.00000000
 C      2   1   0     1.639695064501   103.97788110     0.00000000
 C      2   1   3     1.528394196742   113.49139268   241.49687683
 O      4   2   1     1.402763762640   109.06742513   180.37440049
 O      3   2   1     1.244321947555   109.68851733     7.14689073
 O      3   2   1     1.212405678168   115.43765983   187.48809276
 H      1   2   3     1.121748991419   103.03528585   354.42965326
 H      1   2   3     1.019593784877   112.18021888   112.10099851
 H      1   2   3     1.018485002305   112.23787589   235.91470145
 H      2   1   3     1.106186163752   111.31201230   114.98545168
 H      4   2   1     1.108034607315   112.15883192    59.79184337
 H      4   2   1     1.106409873760   112.87893674   295.25781351
 H      5   4   2     1.004867049233   108.95495058   312.98629152

---------------------------
INTERNAL COORDINATES (A.U.)
---------------------------
 N      0   0   0     0.000000000000     0.00000000     0.00000000
 C      1   0   0     2.853515085287     0.00000000     0.00000000
 C      2   1   0     3.098574615049   103.97788110     0.00000000
 C      2   1   3     2.888246456516   113.49139268   241.49687683
 O      4   2   1     2.650839341979   109.06742513   180.37440049
 O      3   2   1     2.351427703306   109.68851733     7.14689073
 O      3   2   1     2.291114694948   115.43765983   187.48809276
 H      1   2   3     2.119798384785   103.03528585   354.42965326
 H      1   2   3     1.926753021266   112.18021888   112.10099851
 H      1   2   3     1.924657725863   112.23787589   235.91470145
 H      2   1   3     2.090388902625   111.31201230   114.98545168
 H      4   2   1     2.093881954732   112.15883192    59.79184337
 H      4   2   1     2.090811653272   112.87893674   295.25781351
 H      5   4   2     1.898923524052   108.95495058   312.98629152

---------------------
BASIS SET INFORMATION
---------------------
There are 4 groups of distinct atoms

 Group   1 Type N   : 6s3p contracted to 2s1p pattern {33/3}
 Group   2 Type C   : 6s3p contracted to 2s1p pattern {33/3}
 Group   3 Type O   : 6s3p contracted to 2s1p pattern {33/3}
 Group   4 Type H   : 3s contracted to 1s pattern {3}

Atom   0N    basis set group =>   1
Atom   1C    basis set group =>   2
Atom   2C    basis set group =>   2
Atom   3C    basis set group =>   2
Atom   4O    basis set group =>   3
Atom   5O    basis set group =>   3
Atom   6O    basis set group =>   3
Atom   7H    basis set group =>   4
Atom   8H    basis set group =>   4
Atom   9H    basis set group =>   4
Atom  10H    basis set group =>   4
Atom  11H    basis set group =>   4
Atom  12H    basis set group =>   4
Atom  13H    basis set group =>   4

-------------------------
BASIS SET IN INPUT FORMAT
-------------------------

 # Basis set for element : H 
 NewGTO H 
 S 3 
   1       7.0340630000      0.0704520124
   2       1.0647560000      0.4078260720
   3       0.2365590000      0.6477521143
  end;

 # Basis set for element : C 
 NewGTO C 
 S 3 
   1     153.1722600000      0.0707400095
   2      23.0730300000      0.3953800533
   3       4.9232900000      0.6633110894
 S 3 
   1       6.6166120000     -0.0813799884
   2       0.5258560000      0.5748529177
   3       0.1699580000      0.5024129281
 P 3 
   1       4.9129200000      0.1099309276
   2       0.9976160000      0.4627126951
   3       0.2326850000      0.6275135865
  end;

 # Basis set for element : N 
 NewGTO N 
 S 3 
   1     218.3644900000      0.0678700100
   2      32.5988900000      0.3902020574
   3       6.9173900000      0.6700830986
 S 3 
   1       8.9194260000     -0.0808899713
   2       0.7061410000      0.5672017985
   3       0.2250540000      0.5110918184
 P 3 
   1       6.5562720000      0.1159189753
   2       1.3490790000      0.4699578999
   3       0.3122090000      0.6184478683
  end;

 # Basis set for element : O 
 NewGTO O 
 S 3 
   1     281.8665800000      0.0690600291
   2      42.4160000000      0.3931591657
   3       9.0956200000      0.6656692806
 S 3 
   1      11.7893260000     -0.0808199297
   2       0.9128940000      0.5820894938
   3       0.2866610000      0.4971595677
 P 3 
   1       8.2741400000      0.1242710026
   2       1.7154630000      0.4765940098
   3       0.3830130000      0.6130440126
  end;



           ************************************************************
           *        Program running with 10 parallel MPI-processes    *
           *              working on a common directory               *
           ************************************************************
------------------------------------------------------------------------------
                           ORCA GTO INTEGRAL CALCULATION
------------------------------------------------------------------------------

                         BASIS SET STATISTICS AND STARTUP INFO

 # of primitive gaussian shells          ...   84
 # of primitive gaussian functions       ...  126
 # of contracted shells                  ...   28
 # of contracted basis functions         ...   42
 Highest angular momentum                ...    1
 Maximum contraction depth               ...    3
 Integral package used                   ... LIBINT
 Integral threshhold            Thresh   ...  2.500e-11
 Primitive cut-off              TCut     ...  2.500e-12
 Storage cut-off                TCutStore... -1.000e+00
 Buffer length                           ... 1048576 integrals/buffer
 Generate file with integrals 4 distinct ...false


------------------------------ INTEGRAL EVALUATION ----------------------------


 * One electron integrals 
 Pre-screening matrix                    ... done
 Shell pair data                         ... done (   0.000 sec)
 Beginning two electron integral evaluation:
 Starting repulsion integrals
  <ss|ss>  ...        22015 b.      1421 skpd (  6.1%)     0.001 s. (  0.000 ms/b)
  <ss|sp>  ...        30419 b.      1333 skpd (  4.2%)     0.004 s. (  0.000 ms/b)
  <ss|pp>  ...         5957 b.        91 skpd (  1.5%)     0.002 s. (  0.000 ms/b)
  <sp|sp>  ...        10584 b.       294 skpd (  2.7%)     0.004 s. (  0.000 ms/b)
  <sp|pp>  ...         4080 b.        36 skpd (  0.9%)     0.003 s. (  0.001 ms/b)
  <pp|pp>  ...          406 b.         0 skpd (  0.0%)     0.001 s. (  0.002 ms/b)


                                      INTEGRAL STATISTICS

Integral type statistics:
 Number of integrals retained            ...     384880 
 One   Center Integrals retained         ...     384880 (100.0%)
 Two   Center Integrals retained         ...          0 (  0.0%)
 Three Center Integrals retained         ...          0 (  0.0%)
 Four  Center Integrals retained         ...          0 (  0.0%)

Storage statistics:
 Number of char integrals                ...          0 (  0.0%)
 Number of short int integrals           ...          0 (  0.0%)
 Number of double/float integrals        ...     384880 (100.0%)
 Amount of memory used                   ...          4 MB

Prescreening statistics:
 Total number of shell quadruples        ...      82621 
 Number of skipped shell quadruples      ...       3305 (  4.0%)
 # of negligible batches done            ...          0 (  0.0%)

Timings:
 Total evaluation time               ...     0.139 sec (   0.002 min)
 One electron matrix time            ...     0.005 sec (   0.000 min) =  3.7%
 Schwartz matrix evaluation time     ...     0.067 sec (   0.001 min) = 48.2%
 Repulsion integral time             ...     0.015 sec (   0.000 min) = 11.1%



           ************************************************************
           *        Program running with 10 parallel MPI-processes    *
           *              working on a common directory               *
           ************************************************************
-------------------------------------------------------------------------------
                                 ORCA SCF
-------------------------------------------------------------------------------

------------
SCF SETTINGS
------------
Hamiltonian:
 Ab initio Hamiltonian  Method          .... Hartree-Fock(GTOs)


General Settings:
 Integral files         IntName         .... orca_input
 Hartree-Fock type      HFTyp           .... RHF
 Total Charge           Charge          ....    0
 Multiplicity           Mult            ....    1
 Number of Electrons    NEL             ....   56
 Basis Dimension        Dim             ....   42
 Nuclear Repulsion      ENuc            ....    328.1367740617 Eh

Convergence Acceleration:
 DIIS                   CNVDIIS         .... on
   Start iteration      DIISMaxIt       ....    12
   Startup error        DIISStart       ....  0.200000
   # of expansion vecs  DIISMaxEq       ....     5
   Bias factor          DIISBfac        ....   1.050
   Max. coefficient     DIISMaxC        ....  10.000
 Newton-Raphson         CNVNR           .... off
 SOSCF                  CNVSOSCF        .... on
   Start iteration      SOSCFMaxIt      ....   150
   Startup grad/error   SOSCFStart      ....  0.003300
 Level Shifting         CNVShift        .... on
   Level shift para.    LevelShift      ....    0.2500
   Turn off err/grad.   ShiftErr        ....    0.0010
 Zerner damping         CNVZerner       .... off
 Static damping         CNVDamp         .... on
   Fraction old density DampFac         ....    0.7000
   Max. Damping (<1)    DampMax         ....    0.9800
   Min. Damping (>=0)   DampMin         ....    0.0000
   Turn off err/grad.   DampErr         ....    0.1000
 Fernandez-Rico         CNVRico         .... off

SCF Procedure:
 Maximum # iterations   MaxIter         ....   125
 SCF integral mode      SCFMode         .... Conventional
 Integral Threshold     Thresh          ....  2.500e-11 Eh
 Primitive CutOff       TCut            ....  2.500e-12 Eh
 Integral Buffer length BufferLength    .... 1048576
 Integral index format  IndFormat       ....     0
 Integral value format  ValFormat       ....     0
 Integral Storage       Thresh          ....  2.500e-11 Eh

Convergence Tolerance:
 Convergence Check Mode ConvCheckMode   .... Total+1el-Energy
 Convergence forced     ConvForced      .... 0
 Energy Change          TolE            ....  1.000e-08 Eh
 1-El. energy change                    ....  1.000e-05 Eh
 Orbital Gradient       TolG            ....  1.000e-05
 Orbital Rotation angle TolX            ....  1.000e-05
 DIIS Error             TolErr          ....  5.000e-07


Diagonalization of the overlap matrix:
Smallest eigenvalue                        ... 2.225e-01
Time for diagonalization                   ...    0.000 sec
Threshold for overlap eigenvalues          ... 1.000e-08
Number of eigenvalues below threshold      ... 0
Time for construction of square roots      ...    0.000 sec
Total time needed                          ...    0.001 sec

--------------------------------
INITIAL GUESS: MINIMAL BASIS EHT
--------------------------------
The minimal basis has 42 functions
EHT matrix was diagonalized
Basis set overlap was calculated now projecting the orbitals
Using GuessMode=FMatrix for the initial guess
C*T matrix was formed
Effective Fockian was calculated
Effective Fockian was diagonalized
Initial density was built
                      ------------------
                      INITIAL GUESS DONE
                      ------------------

 InCore treatment chosen:
   Memory dedicated               ...    6000 MB
   Memory needed                  ...      0 MB
   Number of tiny    integrals    ...       0
   Number of small   integrals    ...       0
   Number of regular integrals    ...  384880

--------------
SCF ITERATIONS
--------------
ITER       Energy         Delta-E        Max-DP      RMS-DP      [F,P]     Damp
  0   -393.2984336004   0.000000000000 0.12348992  0.01149600  0.2750559 0.7000
  1   -393.4929534245  -0.194519824058 0.10030912  0.00942923  0.1867318 0.7000
                               ***Turning on DIIS***
  2   -393.6209451538  -0.127991729333 0.06223140  0.00635239  0.1346591 0.7000
  3   -393.6581443586  -0.037199204739 0.11624993  0.01349807  0.0975304 0.0000
  4   -393.9134232451  -0.255278886553 0.03090049  0.00202815  0.0108646 0.0000
  5   -393.9228561735  -0.009432928394 0.01748472  0.00117700  0.0061133 0.0000
                      *** Initiating the SOSCF procedure ***
                           *** Shutting down DIIS ***
                      *** Re-Reading the Fockian *** 
                      *** Removing any level shift *** 
ITER      Energy       Delta-E        Grad      Rot      Max-DP    RMS-DP
  6   -393.91538932   0.0074668574  0.002823  0.002823  0.008384  0.000542
  7   -393.91232214   0.0030671768  0.000713  0.000852  0.001733  0.000135
  8   -393.91233058  -0.0000084368  0.000262  0.000594  0.001574  0.000124
  9   -393.91233284  -0.0000022622  0.000066  0.000091  0.000195  0.000014
 10   -393.91233290  -0.0000000579  0.000022  0.000017  0.000039  0.000004
 11   -393.91233290  -0.0000000077  0.000009  0.000025  0.000037  0.000003
 12   -393.91233291  -0.0000000017  0.000004  0.000005  0.000011  0.000001
                 **** Energy Check signals convergence ****
              ***Rediagonalizing the Fockian in SOSCF/NRSCF***

               *****************************************************
               *                     SUCCESS                       *
               *           SCF CONVERGED AFTER  13 CYCLES          *
               *****************************************************


----------------
TOTAL SCF ENERGY
----------------

Total Energy       :         -393.91233291 Eh          -10718.89952 eV

Components:
Nuclear Repulsion  :          328.13677406 Eh            8929.05557 eV
Electronic Energy  :         -722.04910697 Eh          -19647.95508 eV
One Electron Energy:        -1192.99724945 Eh          -32463.10555 eV
Two Electron Energy:          470.94814248 Eh           12815.15047 eV

Virial components:
Potential Energy   :         -789.01177847 Eh          -21470.10201 eV
Kinetic Energy     :          395.09944557 Eh           10751.20249 eV
Virial Ratio       :            1.99699541


---------------
SCF CONVERGENCE
---------------

  Last Energy change         ...   -1.7258e-10  Tolerance :   1.0000e-08
  Last MAX-Density change    ...    3.8440e-06  Tolerance :   1.0000e-07
  Last RMS-Density change    ...    2.4386e-07  Tolerance :   5.0000e-09
  Last Orbital Gradient      ...    1.4106e-06  Tolerance :   1.0000e-05
  Last Orbital Rotation      ...    1.8945e-06  Tolerance :   1.0000e-05

             **** THE GBW FILE WAS UPDATED (orca_input.gbw) ****
             **** DENSITY FILE WAS UPDATED (orca_input.scfp) ****
             **** ENERGY FILE WAS UPDATED (orca_input.en.tmp) ****
             **** THE GBW FILE WAS UPDATED (orca_input.gbw) ****
             **** DENSITY FILE WAS UPDATED (orca_input.scfp) ****
----------------
ORBITAL ENERGIES
----------------

  NO   OCC          E(Eh)            E(eV) 
   0   2.0000     -20.273771      -551.6774 
   1   2.0000     -20.207396      -549.8712 
   2   2.0000     -20.183596      -549.2236 
   3   2.0000     -15.614563      -424.8939 
   4   2.0000     -11.303830      -307.5929 
   5   2.0000     -11.240529      -305.8704 
   6   2.0000     -11.226305      -305.4833 
   7   2.0000      -1.380019       -37.5522 
   8   2.0000      -1.327706       -36.1287 
   9   2.0000      -1.320263       -35.9262 
  10   2.0000      -1.256555       -34.1926 
  11   2.0000      -1.024314       -27.8730 
  12   2.0000      -0.881791       -23.9947 
  13   2.0000      -0.809172       -22.0187 
  14   2.0000      -0.780033       -21.2258 
  15   2.0000      -0.711337       -19.3565 
  16   2.0000      -0.682633       -18.5754 
  17   2.0000      -0.664231       -18.0746 
  18   2.0000      -0.595325       -16.1996 
  19   2.0000      -0.571744       -15.5580 
  20   2.0000      -0.560953       -15.2643 
  21   2.0000      -0.530235       -14.4284 
  22   2.0000      -0.521585       -14.1931 
  23   2.0000      -0.463760       -12.6196 
  24   2.0000      -0.409869       -11.1531 
  25   2.0000      -0.362054        -9.8520 
  26   2.0000      -0.325173        -8.8484 
  27   2.0000      -0.321740        -8.7550 
  28   0.0000       0.306908         8.3514 
  29   0.0000       0.404067        10.9952 
  30   0.0000       0.466972        12.7070 
  31   0.0000       0.486775        13.2458 
  32   0.0000       0.494164        13.4469 
  33   0.0000       0.539229        14.6732 
  34   0.0000       0.564229        15.3534 
  35   0.0000       0.637367        17.3436 
  36   0.0000       0.655812        17.8456 
  37   0.0000       0.659778        17.9535 
  38   0.0000       0.717337        19.5197 
  39   0.0000       0.762247        20.7418 
  40   0.0000       0.822878        22.3916 
  41   0.0000       1.085364        29.5343 
------------------
MOLECULAR ORBITALS
------------------
                      0         1         2         3         4         5   
                 -20.27377 -20.20740 -20.18360 -15.61456 -11.30383 -11.24053
                   2.00000   2.00000   2.00000   2.00000   2.00000   2.00000
                  --------  --------  --------  --------  --------  --------
  0N   1s         0.000006  0.000012  0.000041  0.988803  0.000009  0.000047
  0N   2s         0.000091  0.000064 -0.001048  0.060246  0.000325 -0.000605
  0N   1pz       -0.000015 -0.000058  0.000470 -0.000366 -0.000073  0.000045
  0N   1px       -0.000169  0.000048  0.000859  0.000305 -0.000266 -0.000330
  0N   1py       -0.000032 -0.000291 -0.000575 -0.001171  0.000076 -0.000067
  1C   1s         0.000001 -0.000008  0.000006  0.000533 -0.014002  0.076353
  1C   2s         0.000200 -0.000040 -0.000251 -0.008405 -0.008930  0.014695
  1C   1pz        0.000469  0.000464  0.000600  0.005689 -0.000423 -0.001777
  1C   1px        0.000146  0.000652  0.000582  0.004368  0.002785  0.008291
  1C   1py        0.000296  0.000173  0.000217  0.003599 -0.006976 -0.000014
  2C   1s        -0.000033  0.000748 -0.000792  0.000004  0.989331 -0.001345
  2C   2s         0.000239 -0.015458  0.014404  0.000257  0.052792 -0.000126
  2C   1pz        0.000071 -0.009198 -0.008401 -0.000207 -0.000097  0.000005
  2C   1px        0.000321 -0.008221 -0.011786 -0.000289  0.000289  0.000396
  2C   1py        0.000116 -0.009458  0.001220  0.000105 -0.000591  0.000195
  3C   1s         0.000810 -0.000019 -0.000013  0.000001 -0.002376 -0.985369
  3C   2s        -0.009619  0.000129 -0.000006 -0.000050 -0.000398 -0.061361
  3C   1pz       -0.007212  0.000050  0.000035 -0.000419 -0.000088 -0.000273
  3C   1px       -0.004795  0.000028 -0.000007 -0.000044  0.000524  0.001001
  3C   1py       -0.003963  0.000224  0.000176 -0.000211 -0.000534  0.000280
  4O   1s         0.990215 -0.005134  0.000233  0.000015 -0.000052 -0.000902
  4O   2s         0.048883  0.000828 -0.000100  0.000039  0.000468  0.008380
  4O   1pz       -0.003597  0.000334 -0.000011 -0.000046  0.000068 -0.004350
  4O   1px       -0.006282 -0.000318 -0.000010  0.000156 -0.000144 -0.002241
  4O   1py        0.002192  0.000801 -0.000031  0.000039  0.000220 -0.002973
  5O   1s         0.000188 -0.006341 -0.990217 -0.000131  0.000647 -0.000013
  5O   2s         0.000080 -0.001406 -0.049729  0.000668 -0.009842  0.000122
  5O   1pz        0.000040  0.000246 -0.005796 -0.000537 -0.002493  0.000120
  5O   1px        0.000009 -0.000326 -0.008671 -0.000316 -0.003242 -0.000013
  5O   1py       -0.000024  0.001528  0.001805 -0.000692 -0.000202 -0.000067
  6O   1s         0.004903  0.990161 -0.006389  0.000022  0.000555  0.000015
  6O   2s         0.000963  0.050714  0.000792 -0.000053 -0.010179 -0.000192
  6O   1pz        0.000236 -0.006757  0.000328  0.000007  0.002251 -0.000060
  6O   1px        0.001116 -0.005594  0.000959 -0.000003  0.002209  0.000028
  6O   1py       -0.000344 -0.007407 -0.001239  0.000105  0.002022  0.000056
  7H   1s        -0.000009 -0.000218  0.003872 -0.010408 -0.001276 -0.000008
  8H   1s        -0.000242 -0.000021 -0.000067 -0.012477  0.000013  0.000738
  9H   1s        -0.000018 -0.000039 -0.000063 -0.012480 -0.000050 -0.000083
 10H   1s        -0.000033  0.000141 -0.000107  0.000128 -0.000380 -0.000407
 11H   1s         0.000268  0.000072 -0.000088  0.000095 -0.000219  0.012157
 12H   1s         0.000520  0.000060  0.000070  0.000050 -0.000359  0.012261
 13H   1s        -0.011803 -0.002784  0.000233 -0.000133 -0.001078  0.002049
                      6         7         8         9        10        11   
                 -11.22630  -1.38002  -1.32771  -1.32026  -1.25656  -1.02431
                   2.00000   2.00000   2.00000   2.00000   2.00000   2.00000
                  --------  --------  --------  --------  --------  --------
  0N   1s        -0.001011 -0.090932  0.175390  0.053214 -0.051721  0.052923
  0N   2s         0.007880  0.310736 -0.613036 -0.186336  0.184362 -0.200948
  0N   1pz        0.005048  0.011702 -0.002166  0.002989 -0.004330  0.148689
  0N   1px        0.003967  0.008713 -0.013919  0.004503  0.009646  0.135779
  0N   1py        0.002772  0.012001  0.014726  0.001567 -0.024373  0.109780
  1C   1s        -0.985391 -0.054645  0.051648 -0.003437 -0.011210 -0.159805
  1C   2s        -0.058850  0.138496 -0.125061  0.011577  0.031189  0.465375
  1C   1pz       -0.000101 -0.026807  0.052486  0.008124 -0.017994 -0.002816
  1C   1px        0.000255 -0.022495  0.021777  0.044437 -0.015987  0.081951
  1C   1py        0.000673  0.016448  0.047058  0.004815 -0.016926  0.009875
  2C   1s        -0.015840 -0.133024 -0.074935  0.018902  0.007988 -0.019785
  2C   2s         0.007876  0.298912  0.171628 -0.045067 -0.025116  0.064807
  2C   1pz       -0.000382  0.000719  0.036664  0.029700  0.190875 -0.009819
  2C   1px        0.002430 -0.012717  0.021002  0.037306  0.220105  0.041530
  2C   1py       -0.006743  0.039692  0.070405  0.003176  0.083263 -0.112040
  3C   1s        -0.077934 -0.028408  0.027868 -0.086241  0.010421 -0.110841
  3C   2s         0.005226  0.071200 -0.072851  0.219907 -0.026771  0.324920
  3C   1pz        0.001763  0.019693 -0.018158  0.086579 -0.014416 -0.042379
  3C   1px       -0.007975 -0.007887  0.007997  0.048252 -0.014989 -0.142394
  3C   1py       -0.000401  0.009634 -0.007677  0.050176 -0.010907 -0.039377
  4O   1s        -0.000096 -0.040025  0.034702 -0.196894  0.032737  0.069918
  4O   2s         0.000679  0.145993 -0.128565  0.733549 -0.123900 -0.285714
  4O   1pz       -0.000400 -0.014942  0.014122 -0.064758  0.010932 -0.043878
  4O   1px       -0.000146 -0.025136  0.017484 -0.100975  0.011001 -0.016399
  4O   1py       -0.000416  0.005040  0.000949  0.019605  0.000784 -0.061680
  5O   1s        -0.000028 -0.112671 -0.041052  0.043554  0.160871  0.025738
  5O   2s         0.000064  0.404868  0.156247 -0.155437 -0.575950 -0.104586
  5O   1pz        0.000048  0.055996  0.027939 -0.017061 -0.054364 -0.000470
  5O   1px       -0.000102  0.091742  0.037453 -0.029278 -0.094109  0.005387
  5O   1py        0.000260 -0.031128 -0.001317  0.012965  0.040042 -0.009935
  6O   1s        -0.000028 -0.113260 -0.101409 -0.008363 -0.136956  0.026788
  6O   2s         0.000198  0.405511  0.364007  0.026158  0.482473 -0.106383
  6O   1pz        0.000025 -0.069123 -0.056309 -0.000896 -0.058072  0.002752
  6O   1px       -0.000188 -0.052831 -0.044350  0.004140 -0.039538  0.009716
  6O   1py        0.000323 -0.080357 -0.064299 -0.004870 -0.075253 -0.012400
  7H   1s         0.001002  0.050228 -0.068417 -0.030364 -0.002154 -0.062697
  8H   1s         0.001046  0.049011 -0.109890 -0.032330  0.039556 -0.080423
  9H   1s         0.001092  0.048519 -0.109192 -0.033732  0.040106 -0.096244
 10H   1s         0.012149  0.018645 -0.019863  0.002914  0.005985  0.122823
 11H   1s         0.001451  0.009523 -0.010310  0.030820 -0.003322  0.082333
 12H   1s         0.001443  0.008904 -0.011073  0.030440 -0.004667  0.082700
 13H   1s         0.000748  0.025342 -0.013301  0.111209 -0.012737 -0.083622
                     12        13        14        15        16        17   
                  -0.88179  -0.80917  -0.78003  -0.71134  -0.68263  -0.66423
                   2.00000   2.00000   2.00000   2.00000   2.00000   2.00000
                  --------  --------  --------  --------  --------  --------
  0N   1s         0.007734  0.005189 -0.010583 -0.017914  0.009620  0.010325
  0N   2s        -0.026978 -0.026705  0.054082  0.074037 -0.033425 -0.042801
  0N   1pz        0.262007  0.365155  0.107138  0.327638 -0.319954 -0.020512
  0N   1px       -0.042269 -0.223345 -0.517285  0.250655 -0.161274 -0.140229
  0N   1py        0.147306 -0.444941  0.330174  0.304327  0.084914 -0.040611
  1C   1s        -0.085439 -0.001218  0.034790  0.002880 -0.025420 -0.018294
  1C   2s         0.258316  0.011829 -0.112541 -0.024921  0.096487  0.048926
  1C   1pz        0.069689  0.121940 -0.024268 -0.171784  0.297137 -0.004234
  1C   1px       -0.192868  0.010886 -0.049919 -0.099559  0.104505  0.249454
  1C   1py        0.023730 -0.129172  0.103796 -0.314849 -0.113468 -0.063158
  2C   1s        -0.024023  0.008649  0.009193  0.087560  0.040186  0.098430
  2C   2s         0.076824 -0.026025 -0.031584 -0.272574 -0.122227 -0.297969
  2C   1pz        0.006759  0.018821  0.018862  0.014893  0.089909 -0.043921
  2C   1px        0.043366 -0.058816  0.057626 -0.087837 -0.025913  0.053986
  2C   1py       -0.138979  0.071189 -0.049157  0.191472  0.019628  0.028956
  3C   1s         0.135729 -0.025817 -0.052593  0.006932  0.004101 -0.011575
  3C   2s        -0.416594  0.084223  0.175395 -0.013610 -0.019902  0.024756
  3C   1pz        0.104200  0.025815 -0.054072 -0.014404  0.271709 -0.085504
  3C   1px       -0.051655  0.038266  0.108908  0.077390 -0.025137 -0.294034
  3C   1py        0.055376 -0.052831  0.018254 -0.146631 -0.214183  0.114399
  4O   1s        -0.045366  0.008200  0.018114 -0.021791  0.000698  0.031933
  4O   2s         0.195873 -0.038048 -0.084243  0.103103 -0.007561 -0.149338
  4O   1pz        0.122672 -0.032632 -0.104077  0.035367  0.058776  0.116507
  4O   1px       -0.000714 -0.000386  0.010719  0.099617 -0.065718 -0.196348
  4O   1py        0.113371 -0.064015 -0.071182 -0.035046 -0.224429  0.288061
  5O   1s         0.030198 -0.019710  0.016370 -0.037440 -0.027860 -0.066547
  5O   2s        -0.126898  0.081498 -0.061409  0.172339  0.138236  0.324490
  5O   1pz        0.002079  0.043049 -0.068056 -0.052507 -0.046917 -0.184235
  5O   1px        0.007316 -0.013221 -0.033235 -0.097968 -0.121788 -0.172385
  5O   1py       -0.051248  0.060008 -0.110410  0.049570 -0.018862  0.008439
  6O   1s         0.019333 -0.004278 -0.010377 -0.060952 -0.018404 -0.047449
  6O   2s        -0.078824  0.016321  0.046382  0.277379  0.081859  0.233063
  6O   1pz        0.014591  0.003018  0.007337  0.061352  0.069501  0.099933
  6O   1px        0.022565 -0.030757  0.018307 -0.009923 -0.015907  0.215045
  6O   1py       -0.035020  0.020103 -0.008799  0.173946  0.014035  0.079921
  7H   1s         0.014591 -0.115941  0.287723  0.022239  0.148911  0.090058
  8H   1s        -0.157277 -0.203174 -0.248243 -0.105479  0.094465 -0.052551
  9H   1s        -0.015023  0.343079  0.022723 -0.150841 -0.085175  0.051996
 10H   1s         0.129166  0.091647 -0.073160 -0.011009  0.230380  0.014166
 11H   1s        -0.167342  0.001111  0.099837 -0.037075 -0.219560  0.064811
 12H   1s        -0.173891  0.061351  0.075108  0.088585  0.093870 -0.117492
 13H   1s         0.104525 -0.042903 -0.066880  0.002318 -0.081338  0.215072
                     18        19        20        21        22        23   
                  -0.59533  -0.57174  -0.56095  -0.53023  -0.52159  -0.46376
                   2.00000   2.00000   2.00000   2.00000   2.00000   2.00000
                  --------  --------  --------  --------  --------  --------
  0N   1s        -0.010836  0.011154 -0.008105 -0.008795  0.004036 -0.017670
  0N   2s         0.054062 -0.053186  0.049157  0.042351 -0.012688  0.084849
  0N   1pz        0.117801 -0.031170 -0.105070  0.088707 -0.078869  0.079173
  0N   1px       -0.088591 -0.062799 -0.209949  0.011937 -0.060553  0.114456
  0N   1py        0.045575 -0.073319  0.200292  0.014171 -0.009564  0.083336
  1C   1s         0.003712  0.015066 -0.006887  0.010298 -0.002598  0.040224
  1C   2s        -0.026286 -0.058038  0.045445 -0.052015  0.012862 -0.155404
  1C   1pz       -0.275899 -0.023955  0.127916 -0.206440  0.065196  0.050392
  1C   1px        0.245736 -0.010850  0.086758  0.119455  0.001027 -0.185380
  1C   1py        0.064973  0.082328 -0.189968  0.084422 -0.006507 -0.085693
  2C   1s        -0.032531 -0.029620 -0.036005 -0.000762  0.007865 -0.017633
  2C   2s         0.094090  0.105199  0.091237 -0.000433 -0.018094  0.051527
  2C   1pz       -0.183481 -0.011481  0.076060  0.358437 -0.298010  0.001135
  2C   1px        0.099952 -0.017170 -0.172777 -0.301707 -0.295069  0.032649
  2C   1py        0.160588 -0.158558  0.309770 -0.129214 -0.087903  0.046447
  3C   1s        -0.004395  0.002824 -0.004957 -0.019430 -0.009041 -0.016439
  3C   2s        -0.004037 -0.002296  0.017554  0.060963  0.030292  0.055810
  3C   1pz        0.273485 -0.215403 -0.178376  0.117257  0.056999  0.166797
  3C   1px       -0.237169 -0.011565 -0.119777 -0.150323  0.001882  0.239136
  3C   1py       -0.125032 -0.473755  0.026791  0.043237  0.051462 -0.073798
  4O   1s        -0.004139 -0.011139 -0.001744  0.009425  0.015435  0.068878
  4O   2s         0.019548  0.075369  0.020292 -0.051147 -0.087248 -0.382174
  4O   1pz        0.150397  0.413339  0.115395  0.039110 -0.070320 -0.271805
  4O   1px       -0.159702  0.092062 -0.006347 -0.208987 -0.110214 -0.606437
  4O   1py       -0.176869  0.202728  0.256267 -0.060141 -0.005826  0.276077
  5O   1s         0.026095  0.019602  0.042043  0.004311  0.066064  0.003504
  5O   2s        -0.134008 -0.098918 -0.226199 -0.025046 -0.386391 -0.014471
  5O   1pz       -0.046407  0.054153  0.242438  0.342036  0.219248  0.040863
  5O   1px        0.195441  0.075722  0.119150 -0.210860  0.403438  0.050487
  5O   1py        0.106422 -0.138334  0.223208 -0.116450 -0.139871  0.055651
  6O   1s         0.025718  0.002776  0.049446 -0.004503 -0.071982  0.024159
  6O   2s        -0.133860  0.000759 -0.266708  0.026642  0.417879 -0.126292
  6O   1pz       -0.232969  0.078261 -0.175865  0.327378  0.222769 -0.080089
  6O   1px       -0.038178  0.099879 -0.356189 -0.212852  0.170555  0.105929
  6O   1py        0.034523 -0.092575  0.049853 -0.084723  0.458258 -0.196234
  7H   1s         0.013906 -0.004864  0.090173 -0.015859 -0.033650 -0.025761
  8H   1s        -0.117750 -0.000366 -0.031448 -0.047933  0.023914  0.016135
  9H   1s         0.055561  0.045594 -0.067662  0.022572  0.004903 -0.060689
 10H   1s        -0.241156 -0.064480  0.159176 -0.220085  0.055798  0.003910
 11H   1s        -0.233853 -0.037660  0.118998 -0.059001 -0.002051 -0.100905
 12H   1s         0.001363  0.340862 -0.035501 -0.059122 -0.025193  0.193579
 13H   1s        -0.042464  0.226008  0.104052 -0.002025  0.026285  0.204619
                     24        25        26        27        28        29   
                  -0.40987  -0.36205  -0.32517  -0.32174   0.30691   0.40407
                   2.00000   2.00000   2.00000   2.00000   0.00000   0.00000
                  --------  --------  --------  --------  --------  --------
  0N   1s        -0.006335 -0.022843 -0.003194 -0.002327  0.003817  0.107530
  0N   2s         0.030030  0.129585  0.017392  0.012771 -0.026218 -0.773045
  0N   1pz        0.038963 -0.038403  0.048212  0.006174 -0.061160 -0.398239
  0N   1px        0.064271 -0.144824  0.036338 -0.001667 -0.016036 -0.442817
  0N   1py        0.025078  0.152149  0.042844  0.027461  0.020232 -0.101508
  1C   1s         0.025112 -0.016923  0.041091  0.013704 -0.005844 -0.065295
  1C   2s        -0.100593  0.078592 -0.197228 -0.066686  0.040493  0.389164
  1C   1pz        0.091262 -0.008928  0.008193  0.008327 -0.092332 -0.582149
  1C   1px       -0.203907 -0.017913  0.201729  0.073422  0.054044 -0.437179
  1C   1py       -0.000336  0.135215 -0.427378 -0.167448 -0.006320 -0.506322
  2C   1s         0.003318  0.010396 -0.012474 -0.004090  0.001579 -0.018889
  2C   2s        -0.015565 -0.026960  0.022424  0.005747 -0.005354  0.139093
  2C   1pz       -0.018236 -0.035744 -0.004909 -0.029835 -0.686814 -0.024214
  2C   1px        0.023666 -0.035843 -0.078979 -0.008447  0.510678 -0.001985
  2C   1py        0.019206 -0.031394  0.100412  0.049590  0.229502 -0.153462
  3C   1s         0.000343  0.002951 -0.005727 -0.001270  0.026364  0.015304
  3C   2s         0.012255 -0.011092  0.014524  0.005401 -0.155924 -0.043537
  3C   1pz       -0.158286  0.002223 -0.007468  0.000865 -0.006736 -0.292710
  3C   1px        0.108342  0.015761 -0.083251 -0.039436  0.155299 -0.123093
  3C   1py        0.133586 -0.011909  0.089028  0.038112  0.035128 -0.219239
  4O   1s        -0.001522 -0.001046 -0.005922 -0.002633 -0.000981 -0.047304
  4O   2s         0.010523  0.004492  0.034208  0.014751  0.002218  0.318992
  4O   1pz        0.599359 -0.005552 -0.009317  0.009689  0.021508 -0.238947
  4O   1px       -0.484863  0.141285  0.099828  0.089842 -0.042164 -0.292308
  4O   1py       -0.486835 -0.089060 -0.109102 -0.093087  0.020209 -0.080501
  5O   1s        -0.002781 -0.006363  0.012620  0.003709 -0.001400  0.009191
  5O   2s         0.016036  0.019092 -0.073712 -0.022752  0.007348 -0.060475
  5O   1pz       -0.033989  0.257561 -0.091706  0.565407  0.426481 -0.051824
  5O   1px        0.004149  0.008596  0.433261 -0.292625 -0.322164 -0.085553
  5O   1py        0.052820  0.770645 -0.241424 -0.292137 -0.154072  0.089551
  6O   1s         0.000167 -0.007293  0.003258  0.002022 -0.001316 -0.009894
  6O   2s        -0.001667  0.050176 -0.015908 -0.009501  0.006236  0.063250
  6O   1pz       -0.023553  0.258962  0.257874 -0.477757  0.476951 -0.032901
  6O   1px        0.025327  0.414551  0.188464  0.491257 -0.349517  0.017502
  6O   1py        0.002018 -0.190055 -0.637104 -0.056237 -0.163914 -0.052357
  7H   1s        -0.028582 -0.100243  0.090844  0.028219 -0.033238 -0.030910
  8H   1s         0.030310 -0.031538 -0.034264 -0.002419 -0.035353  0.220404
  9H   1s        -0.024249 -0.019805 -0.036524 -0.028903  0.053294  0.176711
 10H   1s         0.073291 -0.024407  0.064827  0.025082  0.201815 -0.002248
 11H   1s         0.287853 -0.016714  0.069476  0.025584 -0.005483 -0.111096
 12H   1s        -0.078728  0.013956 -0.143479 -0.057215  0.085298 -0.201235
 13H   1s        -0.011489 -0.000616 -0.031964 -0.012120 -0.017942 -0.112604
                     30        31        32        33        34        35   
                   0.46697   0.48678   0.49416   0.53923   0.56423   0.63737
                   0.00000   0.00000   0.00000   0.00000   0.00000   0.00000
                  --------  --------  --------  --------  --------  --------
  0N   1s         0.014260  0.093794 -0.097930 -0.000190  0.062121  0.015392
  0N   2s        -0.121726 -0.670517  0.708570  0.024271 -0.470626 -0.145946
  0N   1pz        0.032736 -0.234433 -0.734537 -0.165302  0.030774 -0.329425
  0N   1px       -0.281933  0.637728 -0.007549 -0.235526 -0.203383  0.140782
  0N   1py        0.507488  0.118309  0.163166 -0.678810  0.412684 -0.094148
  1C   1s        -0.018632 -0.035721 -0.022159 -0.149828 -0.058627  0.079622
  1C   2s         0.107427  0.239865  0.171784  1.035819  0.410375 -0.582530
  1C   1pz       -0.064585 -0.236473 -0.284965 -0.181897  0.005121 -0.206583
  1C   1px       -0.323002  0.177037  0.233769 -0.226808  0.236385 -0.694210
  1C   1py        0.513192  0.313835 -0.141627  0.151133 -0.421422 -0.300918
  2C   1s         0.094213  0.025243 -0.003890  0.068203 -0.028081 -0.032864
  2C   2s        -0.661758 -0.170842  0.029143 -0.476488  0.226348  0.247968
  2C   1pz        0.025014  0.107426  0.100793  0.022867  0.012451 -0.072358
  2C   1px       -0.217486 -0.185578 -0.020766 -0.205100  0.052841 -0.001400
  2C   1py        0.479597  0.239983 -0.154700  0.473305 -0.166182 -0.120440
  3C   1s        -0.028182  0.030864  0.025236  0.009090  0.012989 -0.101512
  3C   2s         0.198829 -0.212419 -0.192530 -0.060136 -0.125937  0.703414
  3C   1pz       -0.002813 -0.111843 -0.038709  0.108874  0.566980  0.546055
  3C   1px       -0.210849  0.277591  0.310242  0.343463  0.503688 -0.448783
  3C   1py        0.124152  0.096527  0.001770  0.255101  0.008283  0.584150
  4O   1s         0.003135  0.007810  0.005536  0.039997  0.073234  0.048292
  4O   2s        -0.017660 -0.059118 -0.045639 -0.294529 -0.534702 -0.351146
  4O   1pz        0.022061  0.001033  0.023679  0.147691  0.210439  0.348309
  4O   1px        0.059990 -0.017581 -0.039107  0.133206  0.284207  0.316378
  4O   1py       -0.003113 -0.084747 -0.021066 -0.077162 -0.025238  0.159583
  5O   1s        -0.031985  0.018750 -0.021747 -0.000822 -0.000136  0.018591
  5O   2s         0.190085 -0.118416  0.132993 -0.006708  0.001187 -0.126844
  5O   1pz       -0.041556  0.034838 -0.101698  0.022060 -0.052962 -0.053954
  5O   1px        0.128483  0.055485  0.025027  0.088252 -0.049324 -0.121203
  5O   1py       -0.304416  0.082863 -0.121155 -0.101295  0.003418  0.089675
  6O   1s        -0.018859  0.003975 -0.003024 -0.003443  0.013362  0.001894
  6O   2s         0.114111 -0.031905  0.023062  0.013616 -0.078634 -0.003761
  6O   1pz       -0.091333 -0.029676 -0.084324 -0.027158 -0.000407  0.029894
  6O   1px        0.004636  0.083578 -0.016509  0.011576 -0.077036 -0.004607
  6O   1py       -0.252896 -0.045405  0.031100 -0.168676  0.098539  0.009056
  7H   1s        -0.701080  0.663902 -0.669328  0.236356 -0.231922  0.105941
  8H   1s         0.393602 -0.273529 -0.943850 -0.135496  0.449219 -0.260169
  9H   1s         0.388395  0.847576  0.098211 -0.639410  0.420969  0.109240
 10H   1s         0.211608  0.278851  0.170974 -0.322456 -0.423078  0.178067
 11H   1s        -0.174292 -0.116107  0.019306 -0.084718  0.425808 -0.116778
 12H   1s         0.155240  0.102204 -0.034756  0.137589 -0.165353  0.371972
 13H   1s        -0.005100  0.108144  0.057228  0.243170  0.413357 -0.016569
                     36        37        38        39        40        41   
                   0.65581   0.65978   0.71734   0.76225   0.82288   1.08536
                   0.00000   0.00000   0.00000   0.00000   0.00000   0.00000
                  --------  --------  --------  --------  --------  --------
  0N   1s        -0.014111  0.009047 -0.005927 -0.005542  0.010243 -0.009767
  0N   2s         0.095474 -0.078143  0.037284  0.055813 -0.077019  0.102254
  0N   1pz        0.123597  0.309181  0.072732 -0.152727 -0.005160  0.058242
  0N   1px       -0.062882 -0.325560 -0.108457  0.118348  0.049951  0.042124
  0N   1py       -0.079078  0.004549 -0.155161  0.214459 -0.060054  0.012716
  1C   1s         0.066007  0.018552  0.034061 -0.033630  0.015161  0.000529
  1C   2s        -0.432382 -0.122271 -0.280605  0.244882 -0.175112 -0.010120
  1C   1pz       -0.226508 -0.453955 -0.444449  0.637063 -0.047301  0.208992
  1C   1px       -0.014202  0.590611  0.011419 -0.127891 -0.061785  0.229238
  1C   1py        0.147335 -0.177859  0.216837 -0.346093 -0.088570  0.020602
  2C   1s        -0.034845 -0.031259 -0.021171 -0.029987  0.128607  0.012722
  2C   2s         0.252525  0.249913  0.171889  0.263995 -1.067800 -0.139197
  2C   1pz       -0.005873  0.169907  0.052378 -0.016914  0.071955 -0.895528
  2C   1px       -0.016003  0.014998 -0.140070  0.097898  0.409232 -0.981833
  2C   1py        0.049414 -0.256770  0.119562  0.121386 -0.703363 -0.496817
  3C   1s        -0.103260  0.044121  0.136755  0.052252  0.011395  0.008235
  3C   2s         0.712364 -0.350436 -0.990987 -0.345118 -0.078641 -0.087740
  3C   1pz       -0.296732 -0.290204  0.428772 -0.512257 -0.001529 -0.095368
  3C   1px        0.111057  0.344503 -0.458056 -0.453683 -0.152675  0.017261
  3C   1py       -0.229491  0.767420 -0.161861  0.443141  0.045328  0.083280
  4O   1s         0.064903  0.000112 -0.001282 -0.002124  0.016326  0.002965
  4O   2s        -0.444937 -0.011292 -0.003399  0.026387 -0.117055 -0.022759
  4O   1pz       -0.129122  0.167028 -0.360151 -0.305876 -0.108059 -0.030576
  4O   1px        0.234514 -0.045701  0.055208  0.034379  0.081283  0.005700
  4O   1py       -0.466122 -0.012072 -0.315635 -0.511044 -0.211478 -0.066149
  5O   1s         0.014775 -0.002596  0.016483  0.005035 -0.078212  0.070631
  5O   2s        -0.102539  0.024169 -0.121972 -0.034597  0.598178 -0.632952
  5O   1pz       -0.080116 -0.052857 -0.114593 -0.038561  0.464633 -0.292881
  5O   1px       -0.113481  0.030209 -0.094046 -0.065696  0.538412 -0.475660
  5O   1py       -0.010074  0.043156 -0.017816 -0.066803  0.173367  0.197836
  6O   1s         0.030158  0.005896  0.018042  0.030718 -0.060332 -0.088725
  6O   2s        -0.191693 -0.040432 -0.120198 -0.216811  0.463952  0.794416
  6O   1pz        0.056082 -0.027476  0.028383  0.125468 -0.386162 -0.393104
  6O   1px       -0.069867  0.046770  0.039191 -0.005236 -0.499717 -0.309954
  6O   1py        0.110750  0.116436  0.042833  0.128450 -0.130658 -0.526927
  7H   1s        -0.016488 -0.084067  0.001318 -0.094407  0.153748 -0.033690
  8H   1s         0.056163  0.411280  0.036975 -0.135191 -0.015754 -0.001228
  9H   1s        -0.157312 -0.201758 -0.181003  0.203963 -0.000706 -0.010052
 10H   1s         0.449864  0.467402  0.516056 -0.693687  0.054445 -0.065528
 11H   1s        -0.499691 -0.533369  0.874079 -0.303139  0.042883 -0.052386
 12H   1s        -0.610005  0.643795  0.481550  0.600893  0.104859  0.070099
 13H   1s         0.852359 -0.111446  0.406698  0.478097  0.332014  0.102879



                    ********************************
                    * MULLIKEN POPULATION ANALYSIS *
                    ********************************

-----------------------
MULLIKEN ATOMIC CHARGES
-----------------------
   0 N :   -0.495956
   1 C :   -0.061755
   2 C :    0.468183
   3 C :   -0.061141
   4 O :   -0.519919
   5 O :   -0.578854
   6 O :   -0.530464
   7 H :    0.393562
   8 H :    0.313491
   9 H :    0.313477
  10 H :    0.156669
  11 H :    0.125015
  12 H :    0.131013
  13 H :    0.346680
Sum of atomic charges:   -0.0000000

--------------------------------
MULLIKEN REDUCED ORBITAL CHARGES
--------------------------------
  0 N s       :     3.488813  s :     3.488813
      pz      :     1.298867  p :     4.007143
      px      :     1.366928
      py      :     1.341348
  1 C s       :     3.134391  s :     3.134391
      pz      :     0.900511  p :     2.927364
      px      :     0.937609
      py      :     1.089243
  2 C s       :     2.951898  s :     2.951898
      pz      :     0.866169  p :     2.579919
      px      :     0.852224
      py      :     0.861526
  3 C s       :     3.114770  s :     3.114770
      pz      :     0.960189  p :     2.946371
      px      :     0.919323
      py      :     1.066859
  4 O s       :     3.790005  s :     3.790005
      pz      :     1.546774  p :     4.729914
      px      :     1.698049
      py      :     1.485091
  5 O s       :     3.820538  s :     3.820538
      pz      :     1.520724  p :     4.758316
      px      :     1.437982
      py      :     1.799610
  6 O s       :     3.818796  s :     3.818796
      pz      :     1.472213  p :     4.711668
      px      :     1.592546
      py      :     1.646909
  7 H s       :     0.606438  s :     0.606438
  8 H s       :     0.686509  s :     0.686509
  9 H s       :     0.686523  s :     0.686523
 10 H s       :     0.843331  s :     0.843331
 11 H s       :     0.874985  s :     0.874985
 12 H s       :     0.868987  s :     0.868987
 13 H s       :     0.653320  s :     0.653320


                     *******************************
                     * LOEWDIN POPULATION ANALYSIS *
                     *******************************

----------------------
LOEWDIN ATOMIC CHARGES
----------------------
   0 N :   -0.167812
   1 C :   -0.056270
   2 C :    0.334960
   3 C :   -0.007508
   4 O :   -0.393581
   5 O :   -0.517057
   6 O :   -0.460115
   7 H :    0.304727
   8 H :    0.225732
   9 H :    0.225467
  10 H :    0.100579
  11 H :    0.071264
  12 H :    0.077781
  13 H :    0.261833

-------------------------------
LOEWDIN REDUCED ORBITAL CHARGES
-------------------------------
  0 N s       :     3.234498  s :     3.234498
      pz      :     1.280284  p :     3.933314
      px      :     1.342012
      py      :     1.311017
  1 C s       :     3.019923  s :     3.019923
      pz      :     0.931525  p :     3.036347
      px      :     0.987154
      py      :     1.117668
  2 C s       :     2.934786  s :     2.934786
      pz      :     0.907211  p :     2.730254
      px      :     0.909193
      py      :     0.913849
  3 C s       :     2.982161  s :     2.982161
      pz      :     0.986668  p :     3.025347
      px      :     0.968776
      py      :     1.069903
  4 O s       :     3.645897  s :     3.645897
      pz      :     1.562504  p :     4.747684
      px      :     1.699887
      py      :     1.485292
  5 O s       :     3.707423  s :     3.707423
      pz      :     1.536285  p :     4.809634
      px      :     1.472795
      py      :     1.800554
  6 O s       :     3.695716  s :     3.695716
      pz      :     1.489819  p :     4.764399
      px      :     1.603841
      py      :     1.670740
  7 H s       :     0.695273  s :     0.695273
  8 H s       :     0.774268  s :     0.774268
  9 H s       :     0.774533  s :     0.774533
 10 H s       :     0.899421  s :     0.899421
 11 H s       :     0.928736  s :     0.928736
 12 H s       :     0.922219  s :     0.922219
 13 H s       :     0.738167  s :     0.738167


                      *****************************
                      * MAYER POPULATION ANALYSIS *
                      *****************************

  NA   - Mulliken gross atomic population
  ZA   - Total nuclear charge
  QA   - Mulliken gross atomic charge
  VA   - Mayer's total valence
  BVA  - Mayer's bonded valence
  FA   - Mayer's free valence

  ATOM       NA         ZA         QA         VA         BVA        FA
  0 N      7.4960     7.0000    -0.4960     3.3985     3.3985     0.0000
  1 C      6.0618     6.0000    -0.0618     3.7831     3.7831     0.0000
  2 C      5.5318     6.0000     0.4682     3.9269     3.9269    -0.0000
  3 C      6.0611     6.0000    -0.0611     3.9112     3.9112    -0.0000
  4 O      8.5199     8.0000    -0.5199     1.8879     1.8879    -0.0000
  5 O      8.5789     8.0000    -0.5789     1.9814     1.9814    -0.0000
  6 O      8.5305     8.0000    -0.5305     2.0087     2.0087     0.0000
  7 H      0.6064     1.0000     0.3936     0.8451     0.8451     0.0000
  8 H      0.6865     1.0000     0.3135     0.9017     0.9017     0.0000
  9 H      0.6865     1.0000     0.3135     0.9017     0.9017     0.0000
 10 H      0.8433     1.0000     0.1567     0.9755     0.9755    -0.0000
 11 H      0.8750     1.0000     0.1250     0.9844     0.9844    -0.0000
 12 H      0.8690     1.0000     0.1310     0.9828     0.9828    -0.0000
 13 H      0.6533     1.0000     0.3467     0.8798     0.8798     0.0000

  Mayer bond orders larger than 0.100000
B(  0-N ,  1-C ) :   0.8684 B(  0-N ,  7-H ) :   0.6850 B(  0-N ,  8-H ) :   0.8884 
B(  0-N ,  9-H ) :   0.8897 B(  1-C ,  2-C ) :   0.8073 B(  1-C ,  3-C ) :   0.9900 
B(  1-C , 10-H ) :   0.9524 B(  2-C ,  5-O ) :   1.4810 B(  2-C ,  6-O ) :   1.6200 
B(  3-C ,  4-O ) :   0.9896 B(  3-C , 11-H ) :   0.9514 B(  3-C , 12-H ) :   0.9542 
B(  4-O , 13-H ) :   0.8145 B(  5-O ,  6-O ) :   0.2425 B(  5-O ,  7-H ) :   0.1412 


-------
TIMINGS
-------

Total SCF time: 0 days 0 hours 0 min 0 sec 

Total time                  ....       0.224 sec
Sum of individual times     ....       0.086 sec  ( 38.6%)

Fock matrix formation       ....       0.077 sec  ( 34.4%)
Diagonalization             ....       0.001 sec  (  0.7%)
Density matrix formation    ....       0.001 sec  (  0.4%)
Population analysis         ....       0.001 sec  (  0.4%)
Initial guess               ....       0.004 sec  (  1.6%)
Orbital Transformation      ....       0.000 sec  (  0.0%)
Orbital Orthonormalization  ....       0.000 sec  (  0.0%)
DIIS solution               ....       0.001 sec  (  0.6%)
SOSCF solution              ....       0.001 sec  (  0.5%)


-------------------------------------------------------------------------------
                          DFT DISPERSION CORRECTION                            
                                                                               
                              DFTD3 V3.1  Rev 1                                
                          USING Becke-Johnson damping                          
-------------------------------------------------------------------------------
Hartree-Fock is recognized
Active option DFTDOPT                   ...         4   

molecular C6(AA) [au] = 1601.534079 


            DFT-D V3
 parameters
 using HF/MINIX parameters
 s6 scaling factor         :     1.0000 
 a1 scaling factor         :     0.4171 
 s8 scaling factor         :     0.8777 
 a2 scaling factor         :     2.9149 
 ad hoc parameters k1-k3   :    16.0000     1.3333    -4.0000 

 Edisp/kcal,au: -34.725159915921  -0.055338058861 
 E6   /kcal   : -19.798066726 
 E8   /kcal   : -14.927093190 
 % E8         :  42.986391499 

-------------------------   ----------------
Dispersion correction           -0.055338059
-------------------------   ----------------

------------------   -----------------
gCP+bas correction        -0.089770388
------------------   -----------------
----------------------------   ----------------
Total correction to HF/MINIX       -0.145108446
----------------------------   ----------------


-------------------------   --------------------
FINAL SINGLE POINT ENERGY      -394.057441352112
-------------------------   --------------------



           ************************************************************
           *        Program running with 10 parallel MPI-processes    *
           *              working on a common directory               *
           ************************************************************
------------------------------------------------------------------------------
                         ORCA SCF GRADIENT CALCULATION
------------------------------------------------------------------------------

Gradient of the Hartree-Fock SCF energy:
Hartree-Fock type                ... RHF
Number of operators              ...    1
Number of atoms                  ...   14
Basis set dimensions             ...   42
Integral neglect threshold       ... 2.5e-11
Integral primitive cutoff        ... 2.5e-12

Nuclear repulsion gradient       ... done
One Electron Gradient            ... done
Pre-screening matrix             ... done
Starting the two electron gradient:
Two electron gradient done
Dispersion correction            ... done
gCP correction                   ... done

------------------
CARTESIAN GRADIENT
------------------

   1   N   :    0.011765808   -0.009683450   -0.002263160
   2   C   :    0.010828142    0.000280393   -0.017319727
   3   C   :    0.015369203    0.018383037    0.016517992
   4   C   :   -0.032142228    0.007059938    0.007027482
   5   O   :    0.000984710   -0.024400788   -0.023658428
   6   O   :    0.022401016    0.006535959    0.021772677
   7   O   :   -0.022020154   -0.019317776   -0.020565015
   8   H   :   -0.018814945   -0.016891491   -0.024023977
   9   H   :   -0.006756613    0.003739890    0.009639338
  10   H   :    0.006558211    0.011995704   -0.001410970
  11   H   :   -0.002354360    0.001532283    0.018215962
  12   H   :    0.009367129    0.010868300   -0.001113405
  13   H   :    0.009011128   -0.006234286    0.009089605
  14   H   :   -0.004197046    0.016132286    0.008091625

Difference to translation invariance:
           :   -0.0000000000   -0.0000000000   -0.0000000000

Norm of the cartesian gradient     ...    0.0934900417
RMS gradient                       ...    0.0144258266
MAX gradient                       ...    0.0321422285

-------
TIMINGS
-------

Total SCF gradient time            ...        0.172 sec

One electron gradient       ....       0.004 sec  (  2.4%)
Prescreening matrices       ....       0.001 sec  (  0.6%)
Two electron gradient       ....       0.043 sec  ( 25.0%)
------------------------------------------------------------------------------
                         ORCA GEOMETRY RELAXATION STEP
------------------------------------------------------------------------------

Reading the OPT-File                    .... done
Getting information on internals        .... done
Copying old internal coords+grads       .... done
Making the new internal coordinates     .... (new redundants).... done
Validating the new internal coordinates .... (new redundants).... done
Calculating the B-matrix                .... done
Calculating the G,G- and P matrices     .... done
Transforming gradient to internals      .... done
Projecting the internal gradient        .... done
Number of atoms                         ....  14
Number of internal coordinates          ....  62
Current Energy                          ....  -394.057441352 Eh
Current gradient norm                   ....     0.093490042 Eh/bohr
Maximum allowed component of the step   ....  0.300
Current trust radius                    ....  0.300
Evaluating the initial hessian          ....  (Almloef) done
Projecting the Hessian                  .... done
Forming the augmented Hessian           .... done
Diagonalizing the augmented Hessian     .... done
Last element of RFO vector              ....  0.931925495
Lowest eigenvalues of augmented Hessian:
 -0.037849555  0.005252662  0.005490310  0.011319208  0.011930094
Length of the computed step             ....  0.389140327
Warning: the length of the step is outside the trust region - taking restricted step instead
The input lambda is                     ....    -0.037850
   iter:   1  x=   -0.072560  g=    1.769787 f(x)=     0.061430
   iter:   2  x=   -0.093946  g=    0.878959 f(x)=     0.018797
   iter:   3  x=   -0.097956  g=    0.652651 f(x)=     0.002617
   iter:   4  x=   -0.098060  g=    0.620734 f(x)=     0.000065
   iter:   5  x=   -0.098060  g=    0.619936 f(x)=     0.000000
   iter:   6  x=   -0.098060  g=    0.619936 f(x)=     0.000000
   iter:   7  x=   -0.098060  g=    0.619936 f(x)=    -0.000000
The output lambda is                    ....    -0.098060 (7 iterations)
The final length of the internal step   ....  0.300000000
Converting the step to cartesian space:
 Initial RMS(Int)=    0.0381000381
Transforming coordinates:
 Iter   0:  RMS(Cart)=    0.1243011651 RMS(Int)=    1.1170435040
 Iter   1:  RMS(Cart)=    0.0073791047 RMS(Int)=    0.0058994335
 Iter   2:  RMS(Cart)=    0.0012918078 RMS(Int)=    0.0006885271
 Iter   3:  RMS(Cart)=    0.0002398884 RMS(Int)=    0.0001891046
 Iter   4:  RMS(Cart)=    0.0000472060 RMS(Int)=    0.0000318402
 Iter   5:  RMS(Cart)=    0.0000093822 RMS(Int)=    0.0000065788
 Iter   6:  RMS(Cart)=    0.0000018208 RMS(Int)=    0.0000014293
 Iter   7:  RMS(Cart)=    0.0000003718 RMS(Int)=    0.0000002226
 Iter   8:  RMS(Cart)=    0.0000000712 RMS(Int)=    0.0000000615
done
Storing new coordinates                 .... done

                                .--------------------.
          ----------------------|Geometry convergence|-------------------------
          Item                value                   Tolerance       Converged
          ---------------------------------------------------------------------
          RMS gradient        0.0143021897            0.0001000000      NO
          MAX gradient        0.0542416140            0.0003000000      NO
          RMS step            0.0381000381            0.0020000000      NO
          MAX step            0.1432986161            0.0040000000      NO
          ........................................................
          Max(Bonds)      0.0249      Max(Angles)    8.21
          Max(Dihed)        4.27      Max(Improp)    0.00
          ---------------------------------------------------------------------

The optimization has not yet converged - more geometry cycles are needed


    ---------------------------------------------------------------------------
                         Redundant Internal Coordinates
                            (Angstroem and degrees)

        Definition                    Value    dE/dq     Step     New-Value
    ----------------------------------------------------------------------------
     1. B(C   1,N   0)                1.5100  0.021533 -0.0249    1.4851   
     2. B(C   2,C   1)                1.6397  0.000694 -0.0011    1.6386   
     3. B(C   3,C   1)                1.5284 -0.016368  0.0183    1.5467   
     4. B(O   4,C   3)                1.4028 -0.016919  0.0142    1.4169   
     5. B(O   5,C   2)                1.2443 -0.030153  0.0151    1.2595   
     6. B(O   6,C   2)                1.2124 -0.035513  0.0160    1.2284   
     7. B(H   7,N   0)                1.1217  0.005806 -0.0080    1.1138   
     8. B(H   8,N   0)                1.0196 -0.012294  0.0126    1.0322   
     9. B(H   9,N   0)                1.0185 -0.013395  0.0137    1.0322   
    10. B(H  10,C   1)                1.1062  0.015954 -0.0193    1.0869   
    11. B(H  11,C   3)                1.1080  0.008251 -0.0100    1.0980   
    12. B(H  12,C   3)                1.1064  0.008780 -0.0106    1.0958   
    13. B(H  13,O   4)                1.0049  0.017657 -0.0173    0.9875   
    14. A(C   1,N   0,H   8)          112.18 -0.006351    1.08    113.26   
    15. A(H   7,N   0,H   8)          109.50 -0.018993    2.22    111.72   
    16. A(H   7,N   0,H   9)          110.19 -0.018566    2.31    112.50   
    17. A(C   1,N   0,H   7)          103.04  0.054242   -8.21     94.82   
    18. A(C   1,N   0,H   9)          112.24 -0.011717    1.86    114.09   
    19. A(H   8,N   0,H   9)          109.52  0.002500    0.47    109.99   
    20. A(C   2,C   1,H  10)          107.10 -0.011231    2.19    109.29   
    21. A(C   2,C   1,C   3)          109.17 -0.015478    2.54    111.71   
    22. A(N   0,C   1,H  10)          111.31 -0.001463   -0.02    111.29   
    23. A(N   0,C   1,C   3)          113.49 -0.018449    2.63    116.12   
    24. A(C   3,C   1,H  10)          111.31  0.010135   -0.37    110.95   
    25. A(N   0,C   1,C   2)          103.98  0.037747   -7.30     96.68   
    26. A(O   5,C   2,O   6)          134.87 -0.011178    1.12    135.99   
    27. A(C   1,C   2,O   6)          115.44 -0.001668    0.28    115.71   
    28. A(C   1,C   2,O   5)          109.69  0.012866   -1.40    108.28   
    29. A(H  11,C   3,H  12)          109.70  0.001723   -0.61    109.09   
    30. A(O   4,C   3,H  12)          103.85 -0.010451    2.00    105.85   
    31. A(C   1,C   3,H  12)          112.88  0.000678   -0.24    112.64   
    32. A(O   4,C   3,H  11)          108.79 -0.010196    1.56    110.35   
    33. A(C   1,C   3,H  11)          112.16  0.006254   -1.37    110.79   
    34. A(C   1,C   3,O   4)          109.07  0.010326   -1.01    108.06   
    35. A(C   3,O   4,H  13)          108.95  0.010571   -1.35    107.61   
    36. D(H  10,C   1,N   0,H   7)    109.42  0.002235   -0.74    108.68   
    37. D(C   3,C   1,N   0,H   8)     -6.40  0.006006   -0.78     -7.18   
    38. D(H  10,C   1,N   0,H   9)     -9.10 -0.002147    0.48     -8.62   
    39. D(H  10,C   1,N   0,H   8)   -132.91  0.008362   -2.39   -135.30   
    40. D(C   3,C   1,N   0,H   7)   -124.07 -0.000121    0.87   -123.20   
    41. D(C   2,C   1,N   0,H   7)     -5.57 -0.004623    0.70     -4.87   
    42. D(C   2,C   1,N   0,H   8)    112.10  0.001505   -0.95    111.15   
    43. D(C   3,C   1,N   0,H   9)    117.41 -0.004502    2.08    119.50   
    44. D(C   2,C   1,N   0,H   9)   -124.09 -0.009004    1.92   -122.17   
    45. D(O   6,C   2,C   1,C   3)    -51.08 -0.002861   -0.03    -51.11   
    46. D(O   6,C   2,C   1,N   0)   -172.51  0.005454   -0.31   -172.82   
    47. D(O   5,C   2,C   1,H  10)   -110.79 -0.003230    0.70   -110.09   
    48. D(O   5,C   2,C   1,N   0)      7.15  0.008237   -1.86      5.29   
    49. D(O   6,C   2,C   1,H  10)     69.55 -0.006013    2.24     71.80   
    50. D(O   5,C   2,C   1,C   3)    128.58 -0.000077   -1.58    127.00   
    51. D(H  12,C   3,C   1,H  10)     61.77 -0.001041    0.20     61.97   
    52. D(H  12,C   3,C   1,N   0)    -64.74  0.007428   -1.59    -66.33   
    53. D(H  11,C   3,C   1,H  10)   -173.70  0.006754   -1.88   -175.58   
    54. D(H  11,C   3,C   1,C   2)    -55.67 -0.010674    2.18    -53.49   
    55. D(H  11,C   3,C   1,N   0)     59.79  0.015223   -3.68     56.12   
    56. D(O   4,C   3,C   1,H  10)    -53.12  0.004955   -1.48    -54.60   
    57. D(H  12,C   3,C   1,C   2)    179.79 -0.018470    4.27    184.06   
    58. D(O   4,C   3,C   1,C   2)     64.91 -0.012473    2.58     67.49   
    59. D(O   4,C   3,C   1,N   0)   -179.63  0.013424   -3.28   -182.90   
    60. D(H  13,O   4,C   3,H  12)   -167.60 -0.003132    0.45   -167.15   
    61. D(H  13,O   4,C   3,H  11)     75.61  0.004743   -0.56     75.05   
    62. D(H  13,O   4,C   3,C   1)    -47.01 -0.002994    0.77    -46.25   
    ----------------------------------------------------------------------------

         *************************************************************
         *                GEOMETRY OPTIMIZATION CYCLE   2            *
         *************************************************************
---------------------------------
CARTESIAN COORDINATES (ANGSTROEM)
---------------------------------
  N     -0.332245   -1.509898   -0.653631
  C      0.550391   -0.947400    0.400029
  C     -0.108448    0.552826    0.419848
  C      2.061614   -0.905768    0.073424
  O      2.728268   -0.281844    1.156928
  O     -1.107452    0.555615   -0.347117
  O      0.475943    1.382284    1.112330
  H     -0.974273   -0.603112   -0.731253
  H      0.162910   -1.703016   -1.538492
  H     -0.861921   -2.344815   -0.357393
  H      0.374815   -1.427359    1.359262
  H      2.244110   -0.351821   -0.856866
  H      2.502016   -1.905410   -0.013171
  H      2.218436    0.530092    1.393680

----------------------------
CARTESIAN COORDINATES (A.U.)
----------------------------
  NO LB      ZA    FRAG     MASS         X           Y           Z
   0 N     7.0000    0    14.007   -0.627852   -2.853293   -1.235184
   1 C     6.0000    0    12.011    1.040089   -1.790326    0.755946
   2 C     6.0000    0    12.011   -0.204937    1.044690    0.793398
   3 C     6.0000    0    12.011    3.895886   -1.711654    0.138751
   4 O     8.0000    0    15.999    5.155679   -0.532608    2.186276
   5 O     8.0000    0    15.999   -2.092781    1.049961   -0.655956
   6 O     8.0000    0    15.999    0.899403    2.612138    2.102000
   7 H     1.0000    0     1.008   -1.841109   -1.139716   -1.381867
   8 H     1.0000    0     1.008    0.307855   -3.218235   -2.907329
   9 H     1.0000    0     1.008   -1.628795   -4.431059   -0.675375
  10 H     1.0000    0     1.008    0.708297   -2.697318    2.568633
  11 H     1.0000    0     1.008    4.240753   -0.664845   -1.619243
  12 H     1.0000    0     1.008    4.728125   -3.600703   -0.024889
  13 H     1.0000    0     1.008    4.192237    1.001728    2.633674

--------------------------------
INTERNAL COORDINATES (ANGSTROEM)
--------------------------------
[...]
  5O   2s         0.047034  0.009565  0.004517  0.018559  0.012934  0.265423
  5O   1pz       -0.048280  0.612173 -0.080777 -0.134272  0.314232  0.144552
  5O   1px       -0.169620 -0.335427 -0.147822 -0.247683 -0.166011  0.334357
  5O   1py        0.288960 -0.136551  0.122994  0.057911 -0.088328 -0.130034
  6O   1s        -0.004984  0.001035 -0.001312 -0.000251 -0.000448 -0.003508
  6O   2s         0.026431 -0.006227  0.010183  0.007054  0.001355  0.002450
  6O   1pz       -0.010877 -0.580978  0.011275 -0.131739  0.618778 -0.028919
  6O   1px       -0.259681  0.222216 -0.316078 -0.331090 -0.299654 -0.069419
  6O   1py        0.278146  0.141275  0.289875  0.370294 -0.132093 -0.052906
  7H   1s        -0.015131 -0.004386  0.010944 -0.009707 -0.021962 -0.004628
  8H   1s        -0.054376  0.021384 -0.043806  0.054574  0.008682 -0.163875
  9H   1s         0.011998 -0.017429  0.062333  0.066090  0.043674 -0.018186
 10H   1s        -0.017258  0.056428 -0.126014 -0.028594  0.208660 -0.027583
 11H   1s         0.136549 -0.024445 -0.275698  0.040274  0.006685 -0.051868
 12H   1s        -0.021865  0.044616  0.126656  0.114014  0.037556  0.247221
 13H   1s        -0.037821  0.020962  0.052338  0.055847  0.007928  0.180419
                     30        31        32        33        34        35   
                   0.49181   0.52360   0.54576   0.59245   0.62323   0.65928
                   0.00000   0.00000   0.00000   0.00000   0.00000   0.00000
                  --------  --------  --------  --------  --------  --------
  0N   1s         0.096499  0.025025 -0.037003  0.089946  0.011852 -0.013708
  0N   2s        -0.667751 -0.192107  0.236217 -0.671762 -0.041610  0.107115
  0N   1pz       -0.237790  0.280194  0.128820 -0.084338  0.359836 -0.152837
  0N   1px       -0.126147  0.104401 -0.108072 -0.383562 -0.105271 -0.239173
  0N   1py       -0.009218 -0.051747 -0.058322 -0.099676 -0.289520 -0.574377
  1C   1s        -0.095277  0.075030  0.025855 -0.096283 -0.098158 -0.069940
  1C   2s         0.605998 -0.519700 -0.226145  0.659282  0.688593  0.527184
  1C   1pz       -0.448030  0.271651  0.162787 -0.202294  0.529984 -0.093898
  1C   1px       -0.363702 -0.818808 -0.215136 -0.223966  0.029157 -0.068859
  1C   1py        0.479684  0.143877 -0.028683 -0.353085  0.038181 -0.314147
  2C   1s         0.107033 -0.001428  0.066848  0.026196  0.037731 -0.012658
  2C   2s        -0.772270 -0.023201 -0.470175 -0.174551 -0.277777  0.104710
  2C   1pz        0.072684 -0.224941  0.071674 -0.010081 -0.017595 -0.034949
  2C   1px       -0.239517 -0.168494  0.413075 -0.050035  0.186071 -0.118517
  2C   1py        0.400186  0.160088 -0.295019 -0.084491  0.152514  0.042152
  3C   1s         0.026061 -0.101591  0.006587 -0.043635  0.069100 -0.030564
  3C   2s        -0.124439  0.691795 -0.015463  0.292072 -0.448611  0.217072
  3C   1pz       -0.368051  0.298388 -0.190366  0.419342 -0.073036 -0.232406
  3C   1px       -0.111599 -0.767980 -0.355959  0.321300  0.046957  0.276140
  3C   1py       -0.045851  0.188390 -0.057864 -0.038224 -0.414136  0.725310
  4O   1s        -0.042554  0.016279 -0.050869  0.073024 -0.033468 -0.006349
  4O   2s         0.298236 -0.102970  0.368536 -0.532277  0.238602  0.040731
  4O   1pz       -0.198220  0.120833 -0.142410  0.220310 -0.220636  0.299335
  4O   1px       -0.199679  0.230956 -0.149265  0.237865 -0.150034 -0.046576
  4O   1py       -0.057891  0.115238  0.135904 -0.114497 -0.020038  0.258579
  5O   1s        -0.004711  0.032227 -0.107552 -0.036226  0.014782  0.018029
  5O   2s         0.014335 -0.235036  0.779315  0.257813 -0.108414 -0.137757
  5O   1pz        0.056937  0.007146 -0.025547 -0.119175  0.230368 -0.029069
  5O   1px        0.160484 -0.135541  0.214580 -0.063667  0.254897 -0.070265
  5O   1py        0.003843  0.115335 -0.462965 -0.240504  0.227279  0.050458
  6O   1s        -0.025954 -0.004379 -0.031001 -0.011637  0.001287 -0.002856
  6O   2s         0.160952  0.039457  0.204949  0.097280 -0.027429  0.014896
  6O   1pz       -0.089891  0.080593 -0.096236 -0.092912  0.050830  0.033876
  6O   1px        0.035486  0.021985 -0.226549 -0.137705 -0.001557  0.083356
  6O   1py       -0.264117 -0.108163 -0.067417 -0.097666  0.008443 -0.028852
  7H   1s         0.114231  0.169873 -0.805791 -0.456690  0.493896  0.091215
  8H   1s         0.125265  0.392172  0.085800  0.437035  0.448274 -0.015395
  9H   1s         0.441784 -0.010701 -0.259988  0.132978 -0.368666 -0.628253
 10H   1s         0.268613 -0.129599 -0.086779 -0.389171 -0.766124 -0.252113
 11H   1s        -0.254314 -0.000826 -0.022975  0.133276  0.361971 -0.663855
 12H   1s         0.117787  0.134123  0.103410 -0.330687 -0.173455  0.446086
 13H   1s        -0.140198 -0.068650 -0.369443  0.481727 -0.077818 -0.408239
                     36        37        38        39        40        41   
                   0.66514   0.69205   0.71613   0.73044   0.77735   0.92811
                   0.00000   0.00000   0.00000   0.00000   0.00000   0.00000
                  --------  --------  --------  --------  --------  --------
  0N   1s        -0.091099  0.013094 -0.006480  0.005070  0.007557  0.012555
  0N   2s         0.677886 -0.101083  0.044112 -0.043214 -0.043835 -0.127489
  0N   1pz       -0.372602  0.495575  0.294580 -0.426664 -0.408163 -0.179031
  0N   1px        0.081731 -0.137902 -0.149349 -0.035620  0.242460 -0.060330
  0N   1py       -0.500508 -0.078733 -0.087275 -0.259845  0.506423 -0.024678
  1C   1s        -0.021501  0.058804 -0.022999  0.006472 -0.048652 -0.019728
  1C   2s         0.185028 -0.423289  0.169439 -0.092392  0.366031  0.195421
  1C   1pz        0.023346 -0.067469 -0.022317 -0.379138  0.737937 -0.183168
  1C   1px       -0.348911  0.125335  0.219133 -0.309152 -0.181596 -0.376654
  1C   1py        0.294441  0.019954  0.204570 -0.362442 -0.365363  0.003285
  2C   1s         0.016183 -0.009870 -0.040278  0.035230 -0.012858 -0.066450
  2C   2s        -0.158679  0.091778  0.317262 -0.241989  0.125833  0.619879
  2C   1pz       -0.162047  0.163524 -0.074899  0.218326 -0.115582  0.507524
  2C   1px       -0.289378  0.335017 -0.438071  0.483062  0.043391  0.662060
  2C   1py        0.256723 -0.056813  0.366389 -0.318709  0.048219  0.919809
  3C   1s        -0.041244 -0.041371  0.139193  0.071517  0.008846 -0.019649
  3C   2s         0.310387  0.305641 -1.011880 -0.510929 -0.037623  0.176865
  3C   1pz       -0.170150 -0.638137  0.091166  0.346724 -0.481162  0.117120
  3C   1px       -0.161644 -0.015141 -0.230584 -0.403695 -0.187010 -0.049279
  3C   1py       -0.426667  0.136433  0.309980  0.293609  0.311847 -0.134524
  4O   1s         0.017961  0.029069 -0.005364  0.019741 -0.001149 -0.006083
  4O   2s        -0.119034 -0.194153  0.020933 -0.160555  0.015777  0.046996
  4O   1pz       -0.182944 -0.136095 -0.206685 -0.086860 -0.116906  0.032167
  4O   1px        0.049550  0.064288  0.013991  0.133820  0.001467 -0.008106
  4O   1py       -0.326294 -0.547787 -0.311283 -0.262600 -0.317490  0.127554
  5O   1s         0.008230 -0.011970  0.012133 -0.016178 -0.001814 -0.023212
  5O   2s        -0.075669  0.104963 -0.103867  0.138846  0.015083  0.217998
  5O   1pz       -0.102858  0.102292 -0.287960  0.260891 -0.022766 -0.012367
  5O   1px       -0.177217  0.183436 -0.392787  0.417755 -0.073387  0.099845
  5O   1py       -0.107722  0.044190 -0.273984  0.242128 -0.064004 -0.265602
  6O   1s        -0.002329  0.026630  0.021663 -0.002292  0.010323  0.105326
  6O   2s         0.029187 -0.193918 -0.153418  0.017943 -0.070928 -0.913735
  6O   1pz        0.006594  0.010519  0.068224 -0.084188  0.054640  0.347541
  6O   1px       -0.005484 -0.073001  0.169884 -0.192189 -0.021302  0.450820
  6O   1py       -0.125507  0.205474  0.023765  0.080854  0.040937  0.643211
  7H   1s        -0.144726  0.122160 -0.419353  0.397434 -0.108675 -0.122473
  8H   1s        -0.626605  0.529793  0.289704 -0.327447 -0.401637 -0.070293
  9H   1s        -0.637797 -0.181930 -0.188869 -0.147199  0.566861  0.041606
 10H   1s        -0.017041  0.290953  0.061062  0.120820 -0.823923 -0.017017
 11H   1s        -0.036989 -0.721196  0.415368  0.444161 -0.365871  0.058573
 12H   1s        -0.457811 -0.042947  0.784792  0.575300  0.296087 -0.138911
 13H   1s         0.472410  0.649261  0.267971  0.343190  0.260800 -0.165980



                    ********************************
                    * MULLIKEN POPULATION ANALYSIS *
                    ********************************

-----------------------
MULLIKEN ATOMIC CHARGES
-----------------------
   0 N :   -0.527178
   1 C :   -0.059650
   2 C :    0.486748
   3 C :   -0.051886
   4 O :   -0.511009
   5 O :   -0.492913
   6 O :   -0.420401
   7 H :    0.361444
   8 H :    0.224970
   9 H :    0.231476
  10 H :    0.161853
  11 H :    0.123991
  12 H :    0.140271
  13 H :    0.332284
Sum of atomic charges:   -0.0000000

--------------------------------
MULLIKEN REDUCED ORBITAL CHARGES
--------------------------------
  0 N s       :     3.471557  s :     3.471557
      pz      :     1.117251  p :     4.055621
      px      :     1.659085
      py      :     1.279284
  1 C s       :     3.109275  s :     3.109275
      pz      :     1.014336  p :     2.950376
      px      :     0.983168
      py      :     0.952872
  2 C s       :     2.995476  s :     2.995476
      pz      :     0.817978  p :     2.517777
      px      :     0.781590
      py      :     0.918209
  3 C s       :     3.120084  s :     3.120084
      pz      :     0.941165  p :     2.931802
      px      :     0.921238
      py      :     1.069399
  4 O s       :     3.791469  s :     3.791469
      pz      :     1.571289  p :     4.719540
      px      :     1.762452
      py      :     1.385799
  5 O s       :     3.783100  s :     3.783100
      pz      :     1.694984  p :     4.709813
      px      :     1.428649
      py      :     1.586180
  6 O s       :     3.826703  s :     3.826703
      pz      :     1.369098  p :     4.593698
      px      :     1.639547
      py      :     1.585053
  7 H s       :     0.638556  s :     0.638556
  8 H s       :     0.775030  s :     0.775030
  9 H s       :     0.768524  s :     0.768524
 10 H s       :     0.838147  s :     0.838147
 11 H s       :     0.876009  s :     0.876009
 12 H s       :     0.859729  s :     0.859729
 13 H s       :     0.667716  s :     0.667716


                     *******************************
                     * LOEWDIN POPULATION ANALYSIS *
                     *******************************

----------------------
LOEWDIN ATOMIC CHARGES
----------------------
   0 N :   -0.350400
   1 C :   -0.039082
   2 C :    0.357985
   3 C :   -0.000633
   4 O :   -0.379463
   5 O :   -0.348561
   6 O :   -0.335486
   7 H :    0.272413
   8 H :    0.155531
   9 H :    0.160934
  10 H :    0.104293
  11 H :    0.070129
  12 H :    0.085510
  13 H :    0.246832

-------------------------------
LOEWDIN REDUCED ORBITAL CHARGES
-------------------------------
  0 N s       :     3.275083  s :     3.275083
      pz      :     1.130904  p :     4.075317
      px      :     1.663692
      py      :     1.280721
  1 C s       :     2.988369  s :     2.988369
      pz      :     1.028187  p :     3.050714
      px      :     1.020590
      py      :     1.001936
  2 C s       :     2.969216  s :     2.969216
      pz      :     0.846891  p :     2.672799
      px      :     0.849997
      py      :     0.975912
  3 C s       :     2.988312  s :     2.988312
      pz      :     0.969503  p :     3.012321
      px      :     0.969644
      py      :     1.073173
  4 O s       :     3.643133  s :     3.643133
      pz      :     1.585237  p :     4.736330
      px      :     1.764015
      py      :     1.387079
  5 O s       :     3.625898  s :     3.625898
      pz      :     1.694514  p :     4.722663
      px      :     1.451751
      py      :     1.576398
  6 O s       :     3.696760  s :     3.696760
      pz      :     1.375839  p :     4.638726
      px      :     1.650142
      py      :     1.612745
  7 H s       :     0.727587  s :     0.727587
  8 H s       :     0.844469  s :     0.844469
  9 H s       :     0.839066  s :     0.839066
 10 H s       :     0.895707  s :     0.895707
 11 H s       :     0.929871  s :     0.929871
 12 H s       :     0.914490  s :     0.914490
 13 H s       :     0.753168  s :     0.753168


                      *****************************
                      * MAYER POPULATION ANALYSIS *
                      *****************************

  NA   - Mulliken gross atomic population
  ZA   - Total nuclear charge
  QA   - Mulliken gross atomic charge
  VA   - Mayer's total valence
  BVA  - Mayer's bonded valence
  FA   - Mayer's free valence

  ATOM       NA         ZA         QA         VA         BVA        FA
  0 N      7.5272     7.0000    -0.5272     2.9552     2.9552     0.0000
  1 C      6.0597     6.0000    -0.0597     3.9450     3.9450    -0.0000
  2 C      5.5133     6.0000     0.4867     3.8578     3.8578    -0.0000
  3 C      6.0519     6.0000    -0.0519     3.8989     3.8989    -0.0000
  4 O      8.5110     8.0000    -0.5110     1.9007     1.9007    -0.0000
  5 O      8.4929     8.0000    -0.4929     2.0571     2.0571     0.0000
  6 O      8.4204     8.0000    -0.4204     2.0868     2.0868     0.0000
  7 H      0.6386     1.0000     0.3614     0.8694     0.8694    -0.0000
  8 H      0.7750     1.0000     0.2250     0.9494     0.9494    -0.0000
  9 H      0.7685     1.0000     0.2315     0.9464     0.9464     0.0000
 10 H      0.8381     1.0000     0.1619     0.9738     0.9738    -0.0000
 11 H      0.8760     1.0000     0.1240     0.9846     0.9846     0.0000
 12 H      0.8597     1.0000     0.1403     0.9803     0.9803     0.0000
 13 H      0.6677     1.0000     0.3323     0.8896     0.8896    -0.0000

  Mayer bond orders larger than 0.100000
B(  0-N ,  1-C ) :   1.0019 B(  0-N ,  8-H ) :   0.9299 B(  0-N ,  9-H ) :   0.9275 
B(  1-C ,  2-C ) :   0.9211 B(  1-C ,  3-C ) :   0.9668 B(  1-C , 10-H ) :   0.9454 
B(  2-C ,  5-O ) :   1.0530 B(  2-C ,  6-O ) :   1.8429 B(  3-C ,  4-O ) :   0.9812 
B(  3-C , 11-H ) :   0.9544 B(  3-C , 12-H ) :   0.9567 B(  4-O , 13-H ) :   0.8503 
B(  5-O ,  6-O ) :   0.1397 B(  5-O ,  7-H ) :   0.8118 

-------
TIMINGS
-------

Total SCF time: 0 days 0 hours 0 min 0 sec 

Total time                  ....       0.182 sec
Sum of individual times     ....       0.029 sec  ( 16.2%)

Fock matrix formation       ....       0.025 sec  ( 14.0%)
Diagonalization             ....       0.000 sec  (  0.1%)
Density matrix formation    ....       0.000 sec  (  0.1%)
Population analysis         ....       0.001 sec  (  0.4%)
Initial guess               ....       0.002 sec  (  1.2%)
Orbital Transformation      ....       0.000 sec  (  0.0%)
Orbital Orthonormalization  ....       0.001 sec  (  0.3%)
DIIS solution               ....       0.000 sec  (  0.0%)
SOSCF solution              ....       0.001 sec  (  0.3%)


-------------------------------------------------------------------------------
                          DFT DISPERSION CORRECTION                            
                                                                               
                              DFTD3 V3.1  Rev 1                                
                          USING Becke-Johnson damping                          
-------------------------------------------------------------------------------
Hartree-Fock is recognized
Active option DFTDOPT                   ...         4   

molecular C6(AA) [au] = 1572.231453 


            DFT-D V3
 parameters
 using HF/MINIX parameters
 s6 scaling factor         :     1.0000 
 a1 scaling factor         :     0.4171 
 s8 scaling factor         :     0.8777 
 a2 scaling factor         :     2.9149 
 ad hoc parameters k1-k3   :    16.0000     1.3333    -4.0000 

 Edisp/kcal,au: -33.183812196019  -0.052881765181 
 E6   /kcal   : -18.926435515 
 E8   /kcal   : -14.257376681 
 % E8         :  42.964854662 

-------------------------   ----------------
Dispersion correction           -0.052881765
-------------------------   ----------------

------------------   -----------------
gCP+bas correction        -0.082635770
------------------   -----------------
----------------------------   ----------------
Total correction to HF/MINIX       -0.135517535
----------------------------   ----------------


-------------------------   --------------------
FINAL SINGLE POINT ENERGY      -394.124488869519
-------------------------   --------------------

                                *** OPTIMIZATION RUN DONE ***

                            ***************************************
                            *     ORCA property calculations      *
                            ***************************************

                                    ---------------------
                                    Active property flags
                                    ---------------------
   (+) Dipole Moment
   (+) Quadrupole Moment


------------------------------------------------------------------------------
                       ORCA ELECTRIC PROPERTIES CALCULATION
------------------------------------------------------------------------------

Dipole Moment Calculation                       ... on
Quadrupole Moment Calculation                   ... on
Polarizability Calculation                      ... off
GBWName                                         ... orca_input.gbw
Electron density file                           ... orca_input.scfp
The origin for moment calculation is the CENTER OF MASS  = ( 1.176456, -0.340847  0.554791)

-------------
DIPOLE MOMENT
-------------
                                X             Y             Z
Electronic contribution:     -1.56247       4.27045       1.58101
Nuclear contribution   :      1.15814      -6.02123      -2.55945
                        -----------------------------------------
Total Dipole Moment    :     -0.40433      -1.75078      -0.97844
                        -----------------------------------------
Magnitude (a.u.)       :      2.04598
Magnitude (Debye)      :      5.20047



--------------------
Rotational spectrum 
--------------------
 
Rotational constants in cm-1:     0.119446     0.078378     0.049856 
Rotational constants in MHz :  3580.904218  2349.724889  1494.652109 

 Dipole components along the rotational axes: 
x,y,z [a.u.] :    -0.313265    -2.020175    -0.082471 
x,y,z [Debye]:    -0.796255    -5.134878    -0.209624 

 

------------------------
QUADRUPOLE MOMENT (A.U.)
------------------------

                XX           YY           ZZ           XY           XZ           YZ
  NUC       350.45598    237.22608     97.20635    -50.02211    107.82973     68.52223
  EL       -386.55177   -268.24265   -126.74362     53.79455   -110.61566    -67.20221
  TOT       -36.09578    -31.01658    -29.53727      3.77245     -2.78593      1.32002 (a.u.)
            -48.55006    -41.71836    -39.72864      5.07407     -3.74717      1.77547 (Buckingham)

diagonalized tensor: 
  -39.09611    -29.04578    -28.50775   (a.u.)
  -52.58560    -39.06756    -38.34390   (Buckingham)
  -27.75975     12.79437     14.96538   (traceless form in Buckingham)

   -0.84224      0.37829      0.38409  
    0.44336      0.89137      0.09430  
   -0.30670      0.24971     -0.91847  

Isotropic quadrupole : -32.21654


Timings for individual modules:

Sum of individual times         ...       32.283 sec (=   0.538 min)
GTO integral calculation        ...       10.243 sec (=   0.171 min)  31.7 %
SCF iterations                  ...       10.742 sec (=   0.179 min)  33.3 %
SCF Gradient evaluation         ...       10.088 sec (=   0.168 min)  31.2 %
Geometry relaxation             ...        1.211 sec (=   0.020 min)   3.8 %
                             ****ORCA TERMINATED NORMALLY****
TOTAL RUN TIME: 0 days 0 hours 0 minutes 34 seconds 875 msec
