
                                 *****************
                                 * O   R   C   A *
                                 *****************

           --- An Ab Initio, DFT and Semiempirical electronic structure package ---

                  #######################################################
                  #                        -***-                        #
                  #          Department of theory and spectroscopy      #
                  #               Directorship: Frank Neese             #
                  #        Max Planck Institute fuer Kohlenforschung    #
                  #                Kaiser Wilhelm Platz 1               #
                  #                 D-45470 Muelheim/Ruhr               #
                  #                      Germany                        #
                  #                                                     #
                  #                  All rights reserved                #
                  #                        -***-                        #
                  #######################################################


                         Program Version 4.1.1  - RELEASE  -


 With contributions from (in alphabetic order):
   Daniel Aravena         : Magnetic Properties
   Michael Atanasov       : Ab Initio Ligand Field Theory
   Alexander A. Auer      : GIAO ZORA
   Ute Becker             : Parallelization
   Giovanni Bistoni       : ED, Open-shell LED
   Martin Brehm           : Molecular dynamics
   Dmytro Bykov           : SCF Hessian
   Vijay G. Chilkuri      : MRCI spin determinant printing
   Dipayan Datta          : RHF DLPNO-CCSD density
   Achintya Kumar Dutta   : EOM-CC, STEOM-CC
   Dmitry Ganyushin       : Spin-Orbit,Spin-Spin,Magnetic field MRCI
   Miquel Garcia          : C-PCM Hessian
   Yang Guo               : DLPNO-NEVPT2, CIM, IAO-localization
   Andreas Hansen         : Spin unrestricted coupled pair/coupled cluster methods
   Benjamin Helmich-Paris : CASSCF linear response (MC-RPA)
   Lee Huntington         : MR-EOM, pCC
   Robert Izsak           : Overlap fitted RIJCOSX, COSX-SCS-MP3, EOM
   Christian Kollmar      : KDIIS, OOCD, Brueckner-CCSD(T), CCSD density
   Simone Kossmann        : Meta GGA functionals, TD-DFT gradient, OOMP2, MP2 Hessian
   Martin Krupicka        : AUTO-CI
   Lucas Lang             : DCDCAS
   Dagmar Lenk            : GEPOL surface, SMD
   Dimitrios Liakos       : Extrapolation schemes; parallel MDCI
   Dimitrios Manganas     : ROCIS; embedding schemes
   Dimitrios Pantazis     : SARC Basis sets
   Taras Petrenko         : DFT Hessian,TD-DFT gradient, ASA, ECA, R-Raman, ABS, FL, XAS/XES, NRVS
   Peter Pinski           : DLPNO-MP2, DLPNO-MP2 Gradient
   Christoph Reimann      : Effective Core Potentials
   Marius Retegan         : Local ZFS, SOC
   Christoph Riplinger    : Optimizer, TS searches, QM/MM, DLPNO-CCSD(T), (RO)-DLPNO pert. Triples
   Tobias Risthaus        : Range-separated hybrids, TD-DFT gradient, RPA, STAB
   Michael Roemelt        : Restricted open shell CIS
   Masaaki Saitow         : Open-shell DLPNO
   Barbara Sandhoefer     : DKH picture change effects
   Avijit Sen             : IP-ROCIS
   Kantharuban Sivalingam : CASSCF convergence, NEVPT2, FIC-MRCI
   Bernardo de Souza      : ESD, SOC TD-DFT
   Georgi Stoychev        : AutoAux, RI-MP2 NMR
   Willem Van den Heuvel  : Paramagnetic NMR
   Boris Wezisla          : Elementary symmetry handling
   Frank Wennmohs         : Technical directorship


 We gratefully acknowledge several colleagues who have allowed us to
 interface, adapt or use parts of their codes:
   Stefan Grimme, W. Hujo, H. Kruse,             : VdW corrections, initial TS optimization,
                  C. Bannwarth                     DFT functionals, gCP, sTDA/sTD-DF
   Ed Valeev                                     : LibInt (2-el integral package), F12 methods
   Garnet Chan, S. Sharma, J. Yang, R. Olivares  : DMRG
   Ulf Ekstrom                                   : XCFun DFT Library
   Mihaly Kallay                                 : mrcc  (arbitrary order and MRCC methods)
   Andreas Klamt, Michael Diedenhofen            : otool_cosmo (COSMO solvation model)
   Jiri Pittner, Ondrej Demel                    : Mk-CCSD
   Frank Weinhold                                : gennbo (NPA and NBO analysis)
   Christopher J. Cramer and Donald G. Truhlar   : smd solvation model
   Lars Goerigk                                  : TD-DFT with DH, B97 family of functionals
   V. Asgeirsson, H. Jonsson                     : NEB implementation
   FAccTs GmbH                                   : IRC, NEB, NEB-TS, Multilevel


 Your calculation uses the libint2 library for the computation of 2-el integrals
 For citations please refer to: http://libint.valeyev.net

 This ORCA versions uses:
   CBLAS   interface :  Fast vector & matrix operations
   LAPACKE interface :  Fast linear algebra routines
   SCALAPACK package :  Parallel linear algebra routines


----- Orbital basis set information -----
Your calculation utilizes the basis: def2-QZVP
   F. Weigend and R. Ahlrichs, Phys. Chem. Chem. Phys. 7, 3297 (2005).

----- AuxJ basis set information -----
Your calculation utilizes the auxiliary basis: def2/J
   F. Weigend, Phys. Chem. Chem. Phys. 8, 1057 (2006).

================================================================================
                                        WARNINGS
                       Please study these warnings very carefully!
================================================================================


INFO   : the flag for use of LIBINT has been found!

================================================================================
                                       INPUT FILE
================================================================================
NAME = /project/RDS-FSC-JSPI0204HON-RW/molecule87.inp
|  1> # ORCA input file
|  2> # 
|  3> ! LDA def2-QZVP SP AUTOSTART
|  4> %scf
|  5> MaxIter 500
|  6> SOSCFStart 0.00033
|  7> end
|  8> %method
|  9> Grid 3
| 10> end
| 11>  
| 12> * xyz 0 1
| 13>    O        1.73328         0.88445         0.25780
| 14>    N        1.04209         0.28297        -0.29964
| 15>    O        0.13780         0.68753        -1.13533
| 16>    C        1.02832        -1.07240         0.01196
| 17>    C        1.98689        -1.63421         0.13136
| 18>    C        2.09708        -2.96338         0.03729
| 19>    C        0.95748        -3.57186         0.16208
| 20>    C       -0.05821        -3.06229         0.38416
| 21>    C        0.04662        -1.76152         0.37233
| 22>    C       -0.98216        -1.39615         0.41224
| 23>    C       -1.13411        -0.38026         1.21634
| 24>    C       -1.90256         0.41409         0.73937
| 25>    C       -2.87644        -0.04673        -0.00256
| 26>    C       -2.78163        -1.20940        -0.63030
| 27>    C       -1.65873        -1.62650        -0.80424
| 28>    H        2.87835        -1.17868        -0.05392
| 29>    H        2.91978        -3.49385        -0.05711
| 30>    H        0.88879        -4.49941        -0.07940
| 31>    H       -0.95919        -3.63101         0.35213
| 32>    H       -0.25668        -0.02132         1.84923
| 33>    H       -1.69434         1.33217         0.90683
| 34>    H       -3.55575         0.45615        -0.12920
| 35>    H       -3.42920        -1.65079        -1.15480
| 36>    H       -1.33056        -2.34519        -1.55259
| 37> *
| 38> 
| 39>                          ****END OF INPUT****
================================================================================

                       ****************************
                       * Single Point Calculation *
                       ****************************

---------------------------------
CARTESIAN COORDINATES (ANGSTROEM)
---------------------------------
  O      1.733280    0.884450    0.257800
  N      1.042090    0.282970   -0.299640
  O      0.137800    0.687530   -1.135330
  C      1.028320   -1.072400    0.011960
  C      1.986890   -1.634210    0.131360
  C      2.097080   -2.963380    0.037290
  C      0.957480   -3.571860    0.162080
  C     -0.058210   -3.062290    0.384160
  C      0.046620   -1.761520    0.372330
  C     -0.982160   -1.396150    0.412240
  C     -1.134110   -0.380260    1.216340
  C     -1.902560    0.414090    0.739370
  C     -2.876440   -0.046730   -0.002560
  C     -2.781630   -1.209400   -0.630300
  C     -1.658730   -1.626500   -0.804240
  H      2.878350   -1.178680   -0.053920
  H      2.919780   -3.493850   -0.057110
  H      0.888790   -4.499410   -0.079400
  H     -0.959190   -3.631010    0.352130
  H     -0.256680   -0.021320    1.849230
  H     -1.694340    1.332170    0.906830
  H     -3.555750    0.456150   -0.129200
  H     -3.429200   -1.650790   -1.154800
  H     -1.330560   -2.345190   -1.552590

----------------------------
CARTESIAN COORDINATES (A.U.)
----------------------------
  NO LB      ZA    FRAG     MASS         X           Y           Z
   0 O     8.0000    0    15.999    3.275425    1.671368    0.487171
   1 N     7.0000    0    14.007    1.969265    0.534736   -0.566238
   2 O     8.0000    0    15.999    0.260404    1.299243   -2.145463
   3 C     6.0000    0    12.011    1.943243   -2.026542    0.022601
   4 C     6.0000    0    12.011    3.754678   -3.088209    0.248234
   5 C     6.0000    0    12.011    3.962907   -5.599977    0.070468
   6 C     6.0000    0    12.011    1.809375   -6.749837    0.306287
   7 C     6.0000    0    12.011   -0.110001   -5.786889    0.725957
   8 C     6.0000    0    12.011    0.088099   -3.328790    0.703602
   9 C     6.0000    0    12.011   -1.856013   -2.638341    0.779021
  10 C     6.0000    0    12.011   -2.143157   -0.718587    2.298549
  11 C     6.0000    0    12.011   -3.595317    0.782517    1.397207
  12 C     6.0000    0    12.011   -5.435684   -0.088307   -0.004838
  13 C     6.0000    0    12.011   -5.256519   -2.285435   -1.191094
  14 C     6.0000    0    12.011   -3.134545   -3.073640   -1.519793
  15 H     1.0000    0     1.008    5.439293   -2.227382   -0.101894
  16 H     1.0000    0     1.008    5.517585   -6.602420   -0.107922
  17 H     1.0000    0     1.008    1.679570   -8.502653   -0.150044
  18 H     1.0000    0     1.008   -1.812606   -6.861614    0.665429
  19 H     1.0000    0     1.008   -0.485055   -0.040289    3.494538
  20 H     1.0000    0     1.008   -3.201839    2.517436    1.713660
  21 H     1.0000    0     1.008   -6.719394    0.861999   -0.244153
  22 H     1.0000    0     1.008   -6.480249   -3.119541   -2.182256
  23 H     1.0000    0     1.008   -2.514394   -4.431767   -2.933970

--------------------------------
INTERNAL COORDINATES (ANGSTROEM)
--------------------------------
 O      0   0   0     0.000000000000     0.00000000     0.00000000
 N      1   0   0     1.072502289088     0.00000000     0.00000000
 O      2   1   0     1.296065960436   127.57015107     0.00000000
 C      2   1   3     1.390795459368   115.87865618   186.95654345
 C      4   2   1     1.117471825596   120.35731229   314.79402379
 C      5   4   2     1.337042964867   124.26125618   200.56994509
 C      6   5   4     1.297886210151   112.76399431   342.05922441
 C      7   6   5     1.157845968771   125.61612711   357.06758058
 C      4   2   1     1.252392830265   127.47793154   123.93815123
 C      9   4   2     1.092463424285   124.37806823     5.47458397
 C     10   9   4     1.304491511893   113.12042335   300.17735146
 C     11  10   9     1.203747359665   110.12196541   141.12738737
 C     12  11  10     1.308150393380   117.87378307    32.75334199
 C     13  12  11     1.324706749662   121.64518799   335.06455324
 C     14  13  12     1.210426347863   115.90821196   339.44208197
 H      5   4   2     1.018104705273   120.44478118   355.44172654
 H      6   5   4     0.983435341494   127.72887981   165.92002924
 H      7   6   5     0.960926588767   119.41573479   166.59091201
 H      8   7   6     1.065942456092   120.05908608   172.57803732
 H     11  10   9     1.139855727976   119.85589322   355.15862596
 H     12  11  10     0.956174307540   115.16304114   216.39923468
 H     13  12  11     0.854627439356   117.93773071   160.33187390
 H     14  13  12     0.943012347215   128.69894429   177.07717755
 H     15  14  13     1.088227268313   127.31182750   202.22783903

---------------------------
INTERNAL COORDINATES (A.U.)
---------------------------
 O      0   0   0     0.000000000000     0.00000000     0.00000000
 N      1   0   0     2.026735604381     0.00000000     0.00000000
 O      2   1   0     2.449209716721   127.57015107     0.00000000
 C      2   1   3     2.628222526508   115.87865618   186.95654345
 C      4   2   1     2.111715712749   120.35731229   314.79402379
 C      5   4   2     2.526645032884   124.26125618   200.56994509
 C      6   5   4     2.452649490178   112.76399431   342.05922441
 C      7   6   5     2.188011786243   125.61612711   357.06758058
 C      4   2   1     2.366679461288   127.47793154   123.93815123
 C      9   4   2     2.064456683224   124.37806823     5.47458397
 C     10   9   4     2.465131701502   113.12042335   300.17735146
 C     11  10   9     2.274752844197   110.12196541   141.12738737
 C     12  11  10     2.472045985469   117.87378307    32.75334199
 C     13  12  11     2.503332964618   121.64518799   335.06455324
 C     14  13  12     2.287374302743   115.90821196   339.44208197
 H      5   4   2     1.923939068623   120.44478118   355.44172654
 H      6   5   4     1.858423465844   127.72887981   165.92002924
 H      7   6   5     1.815888087573   119.41573479   166.59091201
 H      8   7   6     2.014339316534   120.05908608   172.57803732
 H     11  10   9     2.154015158056   119.85589322   355.15862596
 H     12  11  10     1.806907577543   115.16304114   216.39923468
 H     13  12  11     1.615011806917   117.93773071   160.33187390
 H     14  13  12     1.782035077143   128.69894429   177.07717755
 H     15  14  13     2.056451508577   127.31182750   202.22783903

---------------------
BASIS SET INFORMATION
---------------------
There are 4 groups of distinct atoms

 Group   1 Type O   : 15s8p3d2f1g contracted to 7s4p3d2f1g pattern {8211111/5111/111/11/1}
 Group   2 Type N   : 15s8p3d2f1g contracted to 7s4p3d2f1g pattern {8211111/5111/111/11/1}
 Group   3 Type C   : 15s8p3d2f1g contracted to 7s4p3d2f1g pattern {8211111/5111/111/11/1}
 Group   4 Type H   : 7s3p2d1f contracted to 4s3p2d1f pattern {4111/111/11/1}

Atom   0O    basis set group =>   1
Atom   1N    basis set group =>   2
Atom   2O    basis set group =>   1
Atom   3C    basis set group =>   3
Atom   4C    basis set group =>   3
Atom   5C    basis set group =>   3
Atom   6C    basis set group =>   3
Atom   7C    basis set group =>   3
Atom   8C    basis set group =>   3
Atom   9C    basis set group =>   3
Atom  10C    basis set group =>   3
Atom  11C    basis set group =>   3
Atom  12C    basis set group =>   3
Atom  13C    basis set group =>   3
Atom  14C    basis set group =>   3
Atom  15H    basis set group =>   4
Atom  16H    basis set group =>   4
Atom  17H    basis set group =>   4
Atom  18H    basis set group =>   4
Atom  19H    basis set group =>   4
Atom  20H    basis set group =>   4
Atom  21H    basis set group =>   4
Atom  22H    basis set group =>   4
Atom  23H    basis set group =>   4
-------------------------------
AUXILIARY BASIS SET INFORMATION
-------------------------------
There are 4 groups of distinct atoms

 Group   1 Type O   : 12s5p4d2f1g contracted to 6s4p3d1f1g pattern {711111/2111/211/2/1}
 Group   2 Type N   : 12s5p4d2f1g contracted to 6s4p3d1f1g pattern {711111/2111/211/2/1}
 Group   3 Type C   : 12s5p4d2f1g contracted to 6s4p3d1f1g pattern {711111/2111/211/2/1}
 Group   4 Type H   : 5s2p1d contracted to 3s1p1d pattern {311/2/1}

Atom   0O    basis set group =>   1
Atom   1N    basis set group =>   2
Atom   2O    basis set group =>   1
Atom   3C    basis set group =>   3
Atom   4C    basis set group =>   3
Atom   5C    basis set group =>   3
Atom   6C    basis set group =>   3
Atom   7C    basis set group =>   3
Atom   8C    basis set group =>   3
Atom   9C    basis set group =>   3
Atom  10C    basis set group =>   3
Atom  11C    basis set group =>   3
Atom  12C    basis set group =>   3
Atom  13C    basis set group =>   3
Atom  14C    basis set group =>   3
Atom  15H    basis set group =>   4
Atom  16H    basis set group =>   4
Atom  17H    basis set group =>   4
Atom  18H    basis set group =>   4
Atom  19H    basis set group =>   4
Atom  20H    basis set group =>   4
Atom  21H    basis set group =>   4
Atom  22H    basis set group =>   4
Atom  23H    basis set group =>   4
------------------------------------------------------------------------------
                           ORCA GTO INTEGRAL CALCULATION
                           -- RI-GTO INTEGRALS CHOSEN --
------------------------------------------------------------------------------

                         BASIS SET STATISTICS AND STARTUP INFO

Gaussian basis set:
 # of primitive gaussian shells          ...  552
 # of primitive gaussian functions       ... 1452
 # of contracted shells                  ...  345
 # of contracted basis functions         ... 1125
 Highest angular momentum                ...    4
 Maximum contraction depth               ...    8
Auxiliary gaussian basis set:
 # of primitive gaussian shells          ...  432
 # of primitive gaussian functions       ... 1194
 # of contracted shells                  ...  270
 # of contracted aux-basis functions     ...  834
 Highest angular momentum                ...    4
 Maximum contraction depth               ...    7
Ratio of auxiliary to basis functions    ...  0.74
Integral package used                  ... LIBINT
 One Electron integrals                  ... done
 Ordering auxiliary basis shells         ... done
 Integral threshhold             Thresh  ...  1.000e-10
 Primitive cut-off               TCut    ...  1.000e-11
 Pre-screening matrix                    ... done
 Shell pair data                         ... 
 Ordering of the shell pairs             ... done (   0.010 sec) 48327 of 59685 pairs
 Determination of significant pairs      ... done (   0.000 sec)
 Creation of shell pair data             ... done (   0.006 sec)
 Storage of shell pair data              ... done (   0.015 sec)
 Shell pair data done in (   0.032 sec)
 Computing two index integrals           ... done
 Cholesky decomposition of the V-matrix  ... done


Timings:
 Total evaluation time                   ...   3.172 sec (  0.053 min)
 One electron matrix time                ...   0.656 sec (  0.011 min) = 20.7%
 Schwartz matrix evaluation time         ...   2.366 sec (  0.039 min) = 74.6%
 Two index repulsion integral time       ...   0.030 sec (  0.001 min) =  1.0%
 Cholesky decomposition of V             ...   0.055 sec (  0.001 min) =  1.7%
 Three index repulsion integral time     ...   0.000 sec (  0.000 min) =  0.0%

-------------------------------------------------------------------------------
                                 ORCA SCF
-------------------------------------------------------------------------------

------------
SCF SETTINGS
------------
Hamiltonian:
 Density Functional     Method          .... DFT(GTOs)
 Exchange Functional    Exchange        .... Slater
   X-Alpha parameter    XAlpha          ....  0.666667
 Correlation Functional Correlation     .... VWN-5
 Gradients option       PostSCFGGA      .... off
   Density functional embedding theory  .... OFF
 RI-approximation to the Coulomb term is turned on
   Number of auxiliary basis functions  .... 834


General Settings:
 Integral files         IntName         .... /project/RDS-FSC-JSPI0204HON-RW/molecule87
 Hartree-Fock type      HFTyp           .... RHF
 Total Charge           Charge          ....    0
 Multiplicity           Mult            ....    1
 Number of Electrons    NEL             ....  104
 Basis Dimension        Dim             .... 1125
 Nuclear Repulsion      ENuc            ....   1051.0318540147 Eh

Convergence Acceleration:
 DIIS                   CNVDIIS         .... on
   Start iteration      DIISMaxIt       ....    12
   Startup error        DIISStart       ....  0.200000
   # of expansion vecs  DIISMaxEq       ....     5
   Bias factor          DIISBfac        ....   1.050
   Max. coefficient     DIISMaxC        ....  10.000
 Newton-Raphson         CNVNR           .... off
 SOSCF                  CNVSOSCF        .... on
   Start iteration      SOSCFMaxIt      ....   150
   Startup grad/error   SOSCFStart      ....  0.000330
 Level Shifting         CNVShift        .... on
   Level shift para.    LevelShift      ....    0.2500
   Turn off err/grad.   ShiftErr        ....    0.0010
 Zerner damping         CNVZerner       .... off
 Static damping         CNVDamp         .... on
   Fraction old density DampFac         ....    0.7000
   Max. Damping (<1)    DampMax         ....    0.9800
   Min. Damping (>=0)   DampMin         ....    0.0000
   Turn off err/grad.   DampErr         ....    0.1000
 Fernandez-Rico         CNVRico         .... off

SCF Procedure:
 Maximum # iterations   MaxIter         ....   500
 SCF integral mode      SCFMode         .... Direct
   Integral package                     .... LIBINT
 Reset frequency        DirectResetFreq ....    20
 Integral Threshold     Thresh          ....  1.000e-10 Eh
 Primitive CutOff       TCut            ....  1.000e-11 Eh

Convergence Tolerance:
 Convergence Check Mode ConvCheckMode   .... Total+1el-Energy
 Convergence forced     ConvForced      .... 0
 Energy Change          TolE            ....  1.000e-06 Eh
 1-El. energy change                    ....  1.000e-03 Eh
 Orbital Gradient       TolG            ....  5.000e-05
 Orbital Rotation angle TolX            ....  5.000e-05
 DIIS Error             TolErr          ....  1.000e-06


Diagonalization of the overlap matrix:
Smallest eigenvalue                        ... 3.723e-06
Time for diagonalization                   ...    0.355 sec
Threshold for overlap eigenvalues          ... 1.000e-08
Number of eigenvalues below threshold      ... 0
Time for construction of square roots      ...    0.787 sec
Total time needed                          ...    1.148 sec

-------------------
DFT GRID GENERATION
-------------------

General Integration Accuracy     IntAcc      ...  4.340
Radial Grid Type                 RadialGrid  ... Gauss-Chebyshev
Angular Grid (max. acc.)         AngularGrid ... Lebedev-194
Angular grid pruning method      GridPruning ... 3 (G Style)
Weight generation scheme         WeightScheme... Becke
Basis function cutoff            BFCut       ...    1.0000e-10
Integration weight cutoff        WCut        ...    1.0000e-14
Grids for H and He will be reduced by one unit

# of grid points (after initial pruning)     ...  63108 (   0.0 sec)
# of grid points (after weights+screening)   ...  55725 (   0.3 sec)
nearest neighbour list constructed           ...    0.0 sec
Grid point re-assignment to atoms done       ...    0.0 sec
Grid point division into batches done        ...    0.1 sec
Reduced shell lists constructed in    2.2 sec

Total number of grid points                  ...    55725
Total number of batches                      ...      882
Average number of points per batch           ...       63
Average number of grid points per atom       ...     2322
Average number of shells per batch           ...   174.11 (50.47%)
Average number of basis functions per batch  ...   575.83 (51.19%)
Average number of large shells per batch     ...   125.88 (72.30%)
Average number of large basis fcns per batch ...   407.92 (70.84%)
Maximum spatial batch extension              ...  19.47, 20.57, 22.76 au
Average spatial batch extension              ...   2.76,  2.74,  2.96 au

Time for grid setup =    2.523 sec

------------------------------
INITIAL GUESS: MODEL POTENTIAL
------------------------------
Loading Hartree-Fock densities                     ... done
Calculating cut-offs                               ... done
Setting up the integral package                    ... done
Initializing the effective Hamiltonian             ... done
Starting the Coulomb interaction                   ... done (   4.1 sec)
Reading the grid                                   ... done
Mapping shells                                     ... done
Starting the XC term evaluation                    ... done (   4.6 sec)
  promolecular density results
     # of electrons  =    103.995847383
     EX              =    -79.964526937
     EC              =     -6.825553953
     EX+EC           =    -86.790080890
Transforming the Hamiltonian                       ... done (   0.2 sec)
Diagonalizing the Hamiltonian                      ... done (   0.4 sec)
Back transforming the eigenvectors                 ... done (   0.1 sec)
Now organizing SCF variables                       ... done
                      ------------------
                      INITIAL GUESS DONE (  12.0 sec)
                      ------------------
--------------
SCF ITERATIONS
--------------
ITER       Energy         Delta-E        Max-DP      RMS-DP      [F,P]     Damp
               ***  Starting incremental Fock matrix formation  ***
  0   -660.8200570880   0.000000000000 0.20548540  0.00069529  0.2455758 0.7000
  1   -661.1934992727  -0.373442184715 0.16712130  0.00054097  0.1066006 0.7000
                               ***Turning on DIIS***
  2   -661.3133269882  -0.119827715425 0.16759349  0.00077163  0.0358771 0.0000
  3   -661.5245616516  -0.211234663483 0.15476622  0.00049517  0.0658268 0.0000
  4   -661.5719752322  -0.047413580542 0.04625366  0.00018853  0.0268563 0.0000
  5   -661.5766620809  -0.004686848681 0.02875493  0.00009932  0.0145915 0.0000
  6   -661.5770215750  -0.000359494148 0.00610406  0.00004256  0.0104032 0.0000
  7   -661.5771639910  -0.000142415978 0.00360108  0.00001839  0.0026186 0.0000
  8   -661.5771993579  -0.000035366860 0.00324318  0.00001668  0.0004626 0.0000
  9   -661.5772030073  -0.000003649409 0.00028532  0.00000252  0.0005990 0.0000
                      *** Initiating the SOSCF procedure ***
                           *** Shutting down DIIS ***
                      *** Re-Reading the Fockian *** 
                      *** Removing any level shift *** 
ITER      Energy       Delta-E        Grad      Rot      Max-DP    RMS-DP
                 **** Energy Check signals convergence ****
              ***Rediagonalizing the Fockian in SOSCF/NRSCF***

               *****************************************************
               *                     SUCCESS                       *
               *           SCF CONVERGED AFTER  10 CYCLES          *
               *****************************************************

Setting up the final grid:

General Integration Accuracy     IntAcc      ...  4.670
Radial Grid Type                 RadialGrid  ... Gauss-Chebyshev
Angular Grid (max. acc.)         AngularGrid ... Lebedev-302
Angular grid pruning method      GridPruning ... 3 (G Style)
Weight generation scheme         WeightScheme... Becke
Basis function cutoff            BFCut       ...    1.0000e-10
Integration weight cutoff        WCut        ...    1.0000e-14
Grids for H and He will be reduced by one unit

# of grid points (after initial pruning)     ... 123726 (   0.0 sec)
# of grid points (after weights+screening)   ... 108108 (   0.6 sec)
nearest neighbour list constructed           ...    0.0 sec
Grid point re-assignment to atoms done       ...    0.0 sec
Grid point division into batches done        ...    0.4 sec
Reduced shell lists constructed in    4.2 sec

Total number of grid points                  ...   108108
Total number of batches                      ...     1703
Average number of points per batch           ...       63
Average number of grid points per atom       ...     4504
Average number of shells per batch           ...   165.23 (47.89%)
Average number of basis functions per batch  ...   543.90 (48.35%)
Average number of large shells per batch     ...   118.50 (71.72%)
Average number of large basis fcns per batch ...   381.76 (70.19%)
Maximum spatial batch extension              ...  19.32, 24.08, 19.46 au
Average spatial batch extension              ...   2.24,  2.23,  2.37 au

Final grid set up in    4.9 sec
Final integration                            ... done (  14.6 sec)
Change in XC energy                          ...    -0.000138564
Integrated number of electrons               ...   104.000067699
Previous integrated no of electrons          ...   104.000230925

----------------
TOTAL SCF ENERGY
----------------

Total Energy       :         -661.57734240 Eh          -18002.43471 eV

Components:
Nuclear Repulsion  :         1051.03185401 Eh           28600.03075 eV
Electronic Energy  :        -1712.60919641 Eh          -46602.46546 eV
One Electron Energy:        -2989.53077946 Eh          -81349.26823 eV
Two Electron Energy:         1276.92158305 Eh           34746.80277 eV

Virial components:
Potential Energy   :        -1328.08655527 Eh          -36139.07244 eV
Kinetic Energy     :          666.50921287 Eh           18136.63773 eV
Virial Ratio       :            1.99260045


DFT components:
N(Alpha)           :       52.000033849696 electrons
N(Beta)            :       52.000033849696 electrons
N(Total)           :      104.000067699392 electrons
E(X)               :      -81.421801069040 Eh       
E(C)               :       -6.913946854515 Eh       
E(XC)              :      -88.335747923555 Eh       
DFET-embed. en.    :        0.000000000000 Eh       

---------------
SCF CONVERGENCE
---------------

  Last Energy change         ...   -8.2629e-07  Tolerance :   1.0000e-06
  Last MAX-Density change    ...    1.2174e-04  Tolerance :   1.0000e-05
  Last RMS-Density change    ...    1.0284e-06  Tolerance :   1.0000e-06
  Last Orbital Gradient      ...    2.7465e-05  Tolerance :   5.0000e-05
  Last Orbital Rotation      ...    2.7465e-05  Tolerance :   5.0000e-05

             **** THE GBW FILE WAS UPDATED (/project/RDS-FSC-JSPI0204HON-RW/molecule87.gbw) ****
             **** DENSITY FILE WAS UPDATED (/project/RDS-FSC-JSPI0204HON-RW/molecule87.scfp.tmp) ****
             **** ENERGY FILE WAS UPDATED (/project/RDS-FSC-JSPI0204HON-RW/molecule87.en.tmp) ****
----------------
ORBITAL ENERGIES
----------------

  NO   OCC          E(Eh)            E(eV) 
   0   2.0000     -18.678001      -508.2542 
   1   2.0000     -18.630119      -506.9513 
   2   2.0000     -14.096581      -383.5875 
   3   2.0000      -9.798271      -266.6245 
   4   2.0000      -9.768028      -265.8016 
   5   2.0000      -9.765929      -265.7444 
   6   2.0000      -9.765455      -265.7315 
   7   2.0000      -9.762238      -265.6440 
   8   2.0000      -9.761231      -265.6166 
   9   2.0000      -9.759994      -265.5830 
  10   2.0000      -9.758401      -265.5396 
  11   2.0000      -9.749440      -265.2958 
  12   2.0000      -9.743886      -265.1446 
  13   2.0000      -9.742332      -265.1023 
  14   2.0000      -9.730605      -264.7832 
  15   2.0000      -1.241545       -33.7841 
  16   2.0000      -0.980056       -26.6687 
  17   2.0000      -0.928443       -25.2642 
  18   2.0000      -0.860155       -23.4060 
  19   2.0000      -0.804588       -21.8940 
  20   2.0000      -0.785101       -21.3637 
  21   2.0000      -0.742060       -20.1925 
  22   2.0000      -0.694351       -18.8943 
  23   2.0000      -0.659329       -17.9412 
  24   2.0000      -0.627498       -17.0751 
  25   2.0000      -0.619248       -16.8506 
  26   2.0000      -0.580503       -15.7963 
  27   2.0000      -0.560665       -15.2565 
  28   2.0000      -0.550165       -14.9708 
  29   2.0000      -0.540286       -14.7019 
  30   2.0000      -0.520683       -14.1685 
  31   2.0000      -0.500164       -13.6101 
  32   2.0000      -0.478280       -13.0147 
  33   2.0000      -0.464866       -12.6496 
  34   2.0000      -0.459621       -12.5069 
  35   2.0000      -0.444650       -12.0995 
  36   2.0000      -0.430442       -11.7129 
  37   2.0000      -0.409568       -11.1449 
  38   2.0000      -0.391879       -10.6636 
  39   2.0000      -0.384666       -10.4673 
  40   2.0000      -0.379204       -10.3187 
  41   2.0000      -0.338600        -9.2138 
  42   2.0000      -0.332846        -9.0572 
  43   2.0000      -0.331494        -9.0204 
  44   2.0000      -0.318530        -8.6676 
  45   2.0000      -0.302218        -8.2238 
  46   2.0000      -0.292101        -7.9485 
  47   2.0000      -0.280960        -7.6453 
  48   2.0000      -0.259759        -7.0684 
  49   2.0000      -0.249059        -6.7773 
  50   2.0000      -0.221318        -6.0224 
  51   2.0000      -0.185265        -5.0413 
  52   0.0000      -0.118146        -3.2149 
  53   0.0000      -0.061513        -1.6738 
  54   0.0000      -0.051928        -1.4130 
  55   0.0000      -0.031600        -0.8599 
  56   0.0000      -0.011584        -0.3152 
  57   0.0000       0.004040         0.1099 
  58   0.0000       0.016548         0.4503 
  59   0.0000       0.020313         0.5527 
  60   0.0000       0.031028         0.8443 
  61   0.0000       0.034501         0.9388 
  62   0.0000       0.053965         1.4685 
  63   0.0000       0.055249         1.5034 
  64   0.0000       0.061018         1.6604 
  65   0.0000       0.066786         1.8173 
  66   0.0000       0.073729         2.0063 
  67   0.0000       0.087847         2.3904 
  68   0.0000       0.088355         2.4043 
  69   0.0000       0.095243         2.5917 
  70   0.0000       0.099434         2.7057 
  71   0.0000       0.102620         2.7924 
  72   0.0000       0.113988         3.1018 
  73   0.0000       0.125667         3.4196 
  74   0.0000       0.128338         3.4923 
  75   0.0000       0.133761         3.6398 
  76   0.0000       0.145518         3.9597 
  77   0.0000       0.153184         4.1684 
  78   0.0000       0.165855         4.5131 
  79   0.0000       0.172285         4.6881 
  80   0.0000       0.172551         4.6954 
  81   0.0000       0.177159         4.8207 
  82   0.0000       0.181440         4.9372 
  83   0.0000       0.189247         5.1497 
  84   0.0000       0.190851         5.1933 
  85   0.0000       0.200448         5.4545 
  86   0.0000       0.216076         5.8797 
  87   0.0000       0.219257         5.9663 
  88   0.0000       0.225632         6.1398 
  89   0.0000       0.228177         6.2090 
  90   0.0000       0.232799         6.3348 
  91   0.0000       0.244934         6.6650 
  92   0.0000       0.248137         6.7521 
  93   0.0000       0.255468         6.9516 
  94   0.0000       0.259761         7.0684 
  95   0.0000       0.269606         7.3363 
  96   0.0000       0.273873         7.4524 
  97   0.0000       0.277133         7.5412 
  98   0.0000       0.285028         7.7560 
  99   0.0000       0.285547         7.7701 
 100   0.0000       0.288152         7.8410 
 101   0.0000       0.295050         8.0287 
 102   0.0000       0.304833         8.2949 
 103   0.0000       0.307910         8.3787 
 104   0.0000       0.309727         8.4281 
 105   0.0000       0.314990         8.5713 
 106   0.0000       0.325599         8.8600 
 107   0.0000       0.330862         9.0032 
 108   0.0000       0.333434         9.0732 
 109   0.0000       0.340231         9.2582 
 110   0.0000       0.345867         9.4115 
 111   0.0000       0.351563         9.5665 
 112   0.0000       0.354222         9.6389 
 113   0.0000       0.365212         9.9379 
 114   0.0000       0.370636        10.0855 
 115   0.0000       0.376835        10.2542 
 116   0.0000       0.384872        10.4729 
 117   0.0000       0.387713        10.5502 
 118   0.0000       0.391143        10.6435 
 119   0.0000       0.394581        10.7371 
 120   0.0000       0.397133        10.8066 
 121   0.0000       0.398837        10.8529 
 122   0.0000       0.400677        10.9030 
 123   0.0000       0.407082        11.0773 
 124   0.0000       0.410716        11.1761 
 125   0.0000       0.418395        11.3851 
 126   0.0000       0.421992        11.4830 
 127   0.0000       0.426194        11.5973 
 128   0.0000       0.436459        11.8766 
 129   0.0000       0.442930        12.0527 
 130   0.0000       0.447484        12.1767 
 131   0.0000       0.449303        12.2262 
 132   0.0000       0.456542        12.4231 
 133   0.0000       0.463567        12.6143 
 134   0.0000       0.471162        12.8210 
 135   0.0000       0.475864        12.9489 
 136   0.0000       0.491593        13.3769 
 137   0.0000       0.495574        13.4852 
 138   0.0000       0.505235        13.7481 
 139   0.0000       0.510816        13.9000 
 140   0.0000       0.519942        14.1483 
 141   0.0000       0.526063        14.3149 
 142   0.0000       0.533487        14.5169 
 143   0.0000       0.535928        14.5833 
 144   0.0000       0.540466        14.7068 
 145   0.0000       0.549881        14.9630 
 146   0.0000       0.554960        15.1012 
 147   0.0000       0.573737        15.6122 
 148   0.0000       0.579859        15.7788 
 149   0.0000       0.597880        16.2692 
 150   0.0000       0.603168        16.4130 
 151   0.0000       0.612953        16.6793 
 152   0.0000       0.615832        16.7576 
 153   0.0000       0.623700        16.9717 
 154   0.0000       0.630587        17.1592 
 155   0.0000       0.639207        17.3937 
 156   0.0000       0.643536        17.5115 
 157   0.0000       0.654045        17.7975 
 158   0.0000       0.663306        18.0495 
 159   0.0000       0.671238        18.2653 
 160   0.0000       0.677960        18.4482 
 161   0.0000       0.682611        18.5748 
 162   0.0000       0.693324        18.8663 
 163   0.0000       0.701018        19.0757 
 164   0.0000       0.705303        19.1923 
 165   0.0000       0.707572        19.2540 
 166   0.0000       0.719104        19.5678 
 167   0.0000       0.723846        19.6968 
 168   0.0000       0.731205        19.8971 
 169   0.0000       0.736653        20.0454 
 170   0.0000       0.742830        20.2134 
 171   0.0000       0.748078        20.3562 
 172   0.0000       0.749349        20.3908 
 173   0.0000       0.756797        20.5935 
 174   0.0000       0.767284        20.8789 
 175   0.0000       0.772611        21.0238 
 176   0.0000       0.775523        21.1030 
 177   0.0000       0.778254        21.1774 
 178   0.0000       0.785097        21.3636 
 179   0.0000       0.795532        21.6475 
 180   0.0000       0.799892        21.7662 
 181   0.0000       0.805413        21.9164 
 182   0.0000       0.817789        22.2532 
 183   0.0000       0.820411        22.3245 
 184   0.0000       0.826431        22.4883 
 185   0.0000       0.835255        22.7284 
 186   0.0000       0.838224        22.8092 
 187   0.0000       0.848593        23.0914 
 188   0.0000       0.850598        23.1459 
 189   0.0000       0.855586        23.2817 
 190   0.0000       0.866961        23.5912 
 191   0.0000       0.874129        23.7863 
 192   0.0000       0.881368        23.9832 
 193   0.0000       0.885389        24.0927 
 194   0.0000       0.886021        24.1099 
 195   0.0000       0.893522        24.3140 
 196   0.0000       0.898221        24.4418 
 197   0.0000       0.902745        24.5649 
 198   0.0000       0.906652        24.6713 
 199   0.0000       0.914993        24.8982 
 200   0.0000       0.920322        25.0432 
 201   0.0000       0.925671        25.1888 
 202   0.0000       0.935859        25.4660 
 203   0.0000       0.939700        25.5705 
 204   0.0000       0.947722        25.7888 
 205   0.0000       0.953808        25.9544 
 206   0.0000       0.956817        26.0363 
 207   0.0000       0.964085        26.2341 
 208   0.0000       0.973936        26.5022 
 209   0.0000       0.978424        26.6243 
 210   0.0000       0.984959        26.8021 
 211   0.0000       0.989966        26.9383 
 212   0.0000       0.990444        26.9514 
 213   0.0000       0.994516        27.0622 
 214   0.0000       1.006175        27.3794 
 215   0.0000       1.011862        27.5342 
 216   0.0000       1.022786        27.8314 
 217   0.0000       1.035466        28.1765 
 218   0.0000       1.035743        28.1840 
 219   0.0000       1.048015        28.5179 
 220   0.0000       1.052163        28.6308 
 221   0.0000       1.055038        28.7090 
 222   0.0000       1.062107        28.9014 
 223   0.0000       1.070842        29.1391 
 224   0.0000       1.077130        29.3102 
 225   0.0000       1.084198        29.5025 
 226   0.0000       1.098550        29.8931 
 227   0.0000       1.103629        30.0313 
 228   0.0000       1.107861        30.1464 
 229   0.0000       1.124835        30.6083 
 230   0.0000       1.128400        30.7053 
 231   0.0000       1.136544        30.9269 
 232   0.0000       1.148390        31.2493 
 233   0.0000       1.153820        31.3970 
 234   0.0000       1.164984        31.7008 
 235   0.0000       1.176392        32.0113 
 236   0.0000       1.185813        32.2676 
 237   0.0000       1.189137        32.3581 
 238   0.0000       1.201075        32.6829 
 239   0.0000       1.204549        32.7774 
 240   0.0000       1.208037        32.8724 
 241   0.0000       1.218445        33.1556 
 242   0.0000       1.227440        33.4003 
 243   0.0000       1.243244        33.8304 
 244   0.0000       1.249698        34.0060 
 245   0.0000       1.263442        34.3800 
 246   0.0000       1.266549        34.4645 
 247   0.0000       1.278159        34.7805 
 248   0.0000       1.290887        35.1268 
 249   0.0000       1.301765        35.4228 
 250   0.0000       1.302883        35.4532 
 251   0.0000       1.311389        35.6847 
 252   0.0000       1.319150        35.8959 
 253   0.0000       1.325222        36.0611 
 254   0.0000       1.335478        36.3402 
 255   0.0000       1.350056        36.7369 
 256   0.0000       1.355586        36.8874 
 257   0.0000       1.358900        36.9775 
 258   0.0000       1.376846        37.4659 
 259   0.0000       1.378632        37.5145 
 260   0.0000       1.388987        37.7963 
 261   0.0000       1.398048        38.0428 
 262   0.0000       1.409301        38.3490 
 263   0.0000       1.409981        38.3675 
 264   0.0000       1.424844        38.7720 
 265   0.0000       1.431202        38.9450 
 266   0.0000       1.440674        39.2027 
 267   0.0000       1.452447        39.5231 
 268   0.0000       1.456264        39.6269 
 269   0.0000       1.460172        39.7333 
 270   0.0000       1.468417        39.9577 
 271   0.0000       1.483091        40.3570 
 272   0.0000       1.486463        40.4487 
 273   0.0000       1.493676        40.6450 
 274   0.0000       1.510237        41.0956 
 275   0.0000       1.512745        41.1639 
 276   0.0000       1.521369        41.3985 
 277   0.0000       1.529347        41.6156 
 278   0.0000       1.538214        41.8569 
 279   0.0000       1.550965        42.2039 
 280   0.0000       1.562226        42.5103 
 281   0.0000       1.566059        42.6146 
 282   0.0000       1.573186        42.8086 
 283   0.0000       1.578569        42.9550 
 284   0.0000       1.589224        43.2450 
 285   0.0000       1.593771        43.3687 
 286   0.0000       1.608796        43.7776 
 287   0.0000       1.609737        43.8032 
 288   0.0000       1.620128        44.0859 
 289   0.0000       1.639570        44.6150 
 290   0.0000       1.650694        44.9177 
 291   0.0000       1.658386        45.1270 
 292   0.0000       1.669144        45.4197 
 293   0.0000       1.674818        45.5741 
 294   0.0000       1.683640        45.8142 
 295   0.0000       1.689261        45.9671 
 296   0.0000       1.692259        46.0487 
 297   0.0000       1.704074        46.3702 
 298   0.0000       1.714865        46.6639 
 299   0.0000       1.718185        46.7542 
 300   0.0000       1.730507        47.0895 
 301   0.0000       1.739543        47.3354 
 302   0.0000       1.743762        47.4502 
 303   0.0000       1.762797        47.9681 
 304   0.0000       1.770793        48.1857 
 305   0.0000       1.774567        48.2884 
 306   0.0000       1.785178        48.5772 
 307   0.0000       1.796132        48.8752 
 308   0.0000       1.808371        49.2083 
 309   0.0000       1.811534        49.2944 
 310   0.0000       1.814954        49.3874 
 311   0.0000       1.827511        49.7291 
 312   0.0000       1.833160        49.8828 
 313   0.0000       1.842653        50.1411 
 314   0.0000       1.847113        50.2625 
 315   0.0000       1.855844        50.5001 
 316   0.0000       1.865712        50.7686 
 317   0.0000       1.876737        51.0686 
 318   0.0000       1.880492        51.1708 
 319   0.0000       1.890514        51.4435 
 320   0.0000       1.895561        51.5808 
 321   0.0000       1.903897        51.8077 
 322   0.0000       1.911631        52.0181 
 323   0.0000       1.923768        52.3484 
 324   0.0000       1.926351        52.4187 
 325   0.0000       1.929559        52.5060 
 326   0.0000       1.945996        52.9532 
 327   0.0000       1.955858        53.2216 
 328   0.0000       1.963067        53.4178 
 329   0.0000       1.968467        53.5647 
 330   0.0000       1.978383        53.8345 
 331   0.0000       1.982332        53.9420 
 332   0.0000       1.987329        54.0780 
 333   0.0000       1.993540        54.2470 
 334   0.0000       2.001698        54.4690 
 335   0.0000       2.010834        54.7176 
 336   0.0000       2.030439        55.2511 
 337   0.0000       2.035396        55.3859 
 338   0.0000       2.038489        55.4701 
 339   0.0000       2.050105        55.7862 
 340   0.0000       2.053442        55.8770 
 341   0.0000       2.060838        56.0783 
 342   0.0000       2.075377        56.4739 
 343   0.0000       2.080035        56.6006 
 344   0.0000       2.086685        56.7816 
 345   0.0000       2.092575        56.9419 
 346   0.0000       2.100000        57.1439 
 347   0.0000       2.109115        57.3919 
 348   0.0000       2.114248        57.5316 
 349   0.0000       2.125248        57.8309 
 350   0.0000       2.132368        58.0247 
 351   0.0000       2.135309        58.1047 
 352   0.0000       2.140723        58.2520 
 353   0.0000       2.156671        58.6860 
 354   0.0000       2.158483        58.7353 
 355   0.0000       2.165424        58.9242 
 356   0.0000       2.172222        59.1092 
 357   0.0000       2.180568        59.3363 
 358   0.0000       2.185878        59.4808 
 359   0.0000       2.188597        59.5547 
 360   0.0000       2.196954        59.7822 
 361   0.0000       2.205967        60.0274 
 362   0.0000       2.214387        60.2565 
 363   0.0000       2.223741        60.5111 
 364   0.0000       2.224681        60.5366 
 365   0.0000       2.230301        60.6896 
 366   0.0000       2.242395        61.0187 
 367   0.0000       2.244584        61.0782 
 368   0.0000       2.264305        61.6149 
 369   0.0000       2.285292        62.1860 
 370   0.0000       2.288807        62.2816 
 371   0.0000       2.294816        62.4451 
 372   0.0000       2.299537        62.5736 
 373   0.0000       2.309139        62.8349 
 374   0.0000       2.317088        63.0512 
 375   0.0000       2.324249        63.2460 
 376   0.0000       2.333319        63.4928 
 377   0.0000       2.345293        63.8187 
 378   0.0000       2.350341        63.9560 
 379   0.0000       2.359951        64.2175 
 380   0.0000       2.365118        64.3581 
 381   0.0000       2.382623        64.8345 
 382   0.0000       2.386395        64.9371 
 383   0.0000       2.392889        65.1138 
 384   0.0000       2.405466        65.4560 
 385   0.0000       2.405909        65.4681 
 386   0.0000       2.410890        65.6037 
 387   0.0000       2.426143        66.0187 
 388   0.0000       2.428970        66.0956 
 389   0.0000       2.446218        66.5650 
 390   0.0000       2.451772        66.7161 
 391   0.0000       2.456770        66.8521 
 392   0.0000       2.463002        67.0217 
 393   0.0000       2.474189        67.3261 
 394   0.0000       2.480619        67.5011 
 395   0.0000       2.499325        68.0101 
 396   0.0000       2.502301        68.0911 
 397   0.0000       2.519683        68.5641 
 398   0.0000       2.530984        68.8716 
 399   0.0000       2.531970        68.8984 
 400   0.0000       2.550021        69.3896 
 401   0.0000       2.552980        69.4701 
 402   0.0000       2.561762        69.7091 
 403   0.0000       2.568708        69.8981 
 404   0.0000       2.579512        70.1921 
 405   0.0000       2.584458        70.3267 
 406   0.0000       2.598837        70.7180 
 407   0.0000       2.602474        70.8169 
 408   0.0000       2.615119        71.1610 
 409   0.0000       2.616806        71.2069 
 410   0.0000       2.628705        71.5307 
 411   0.0000       2.630972        71.5924 
 412   0.0000       2.642718        71.9120 
 413   0.0000       2.652052        72.1660 
 414   0.0000       2.653539        72.2065 
 415   0.0000       2.666396        72.5563 
 416   0.0000       2.681561        72.9690 
 417   0.0000       2.693137        73.2840 
 418   0.0000       2.696523        73.3761 
 419   0.0000       2.706643        73.6515 
 420   0.0000       2.706898        73.6584 
 421   0.0000       2.712155        73.8015 
 422   0.0000       2.731287        74.3221 
 423   0.0000       2.735201        74.4286 
 424   0.0000       2.749176        74.8089 
 425   0.0000       2.749820        74.8264 
 426   0.0000       2.763040        75.1861 
 427   0.0000       2.767637        75.3112 
 428   0.0000       2.775393        75.5223 
 429   0.0000       2.782409        75.7132 
 430   0.0000       2.799424        76.1762 
 431   0.0000       2.806554        76.3702 
 432   0.0000       2.808074        76.4116 
 433   0.0000       2.815359        76.6098 
 434   0.0000       2.829216        76.9869 
 435   0.0000       2.837650        77.2164 
 436   0.0000       2.856885        77.7398 
 437   0.0000       2.866070        77.9897 
 438   0.0000       2.870652        78.1144 
 439   0.0000       2.876448        78.2721 
 440   0.0000       2.885074        78.5068 
 441   0.0000       2.899466        78.8985 
 442   0.0000       2.905168        79.0536 
 443   0.0000       2.906558        79.0915 
 444   0.0000       2.918008        79.4030 
 445   0.0000       2.922309        79.5201 
 446   0.0000       2.932402        79.7947 
 447   0.0000       2.941121        80.0320 
 448   0.0000       2.957171        80.4687 
 449   0.0000       2.964234        80.6609 
 450   0.0000       2.969226        80.7967 
 451   0.0000       2.978592        81.0516 
 452   0.0000       2.985020        81.2265 
 453   0.0000       2.999406        81.6180 
 454   0.0000       3.009868        81.9027 
 455   0.0000       3.026185        82.3467 
 456   0.0000       3.035976        82.6131 
 457   0.0000       3.043398        82.8151 
 458   0.0000       3.059375        83.2498 
 459   0.0000       3.064928        83.4009 
 460   0.0000       3.075413        83.6862 
 461   0.0000       3.086097        83.9770 
 462   0.0000       3.093178        84.1697 
 463   0.0000       3.113267        84.7163 
 464   0.0000       3.117257        84.8249 
 465   0.0000       3.125497        85.0491 
 466   0.0000       3.133655        85.2711 
 467   0.0000       3.146528        85.6214 
 468   0.0000       3.153423        85.8090 
 469   0.0000       3.165772        86.1450 
 470   0.0000       3.171009        86.2875 
 471   0.0000       3.202631        87.1480 
 472   0.0000       3.215381        87.4950 
 473   0.0000       3.221154        87.6521 
 474   0.0000       3.228080        87.8405 
 475   0.0000       3.246323        88.3369 
 476   0.0000       3.252486        88.5046 
 477   0.0000       3.262999        88.7907 
 478   0.0000       3.271124        89.0118 
 479   0.0000       3.282744        89.3280 
 480   0.0000       3.294820        89.6566 
 481   0.0000       3.308965        90.0415 
 482   0.0000       3.315542        90.2205 
 483   0.0000       3.317802        90.2820 
 484   0.0000       3.330528        90.6283 
 485   0.0000       3.350623        91.1751 
 486   0.0000       3.363967        91.5382 
 487   0.0000       3.390143        92.2505 
 488   0.0000       3.391742        92.2940 
 489   0.0000       3.404529        92.6419 
 490   0.0000       3.409989        92.7905 
 491   0.0000       3.425350        93.2085 
 492   0.0000       3.434324        93.4527 
 493   0.0000       3.445757        93.7638 
 494   0.0000       3.458707        94.1162 
 495   0.0000       3.468328        94.3780 
 496   0.0000       3.489396        94.9513 
 497   0.0000       3.491230        95.0012 
 498   0.0000       3.500947        95.2656 
 499   0.0000       3.516775        95.6963 
 500   0.0000       3.526781        95.9686 
 501   0.0000       3.536533        96.2340 
 502   0.0000       3.554806        96.7312 
 503   0.0000       3.559026        96.8460 
 504   0.0000       3.568446        97.1024 
 505   0.0000       3.579932        97.4149 
 506   0.0000       3.597987        97.9062 
 507   0.0000       3.609645        98.2234 
 508   0.0000       3.618259        98.4578 
 509   0.0000       3.627341        98.7050 
 510   0.0000       3.639141        99.0261 
 511   0.0000       3.650030        99.3224 
 512   0.0000       3.659121        99.5697 
 513   0.0000       3.666111        99.7599 
 514   0.0000       3.672978        99.9468 
 515   0.0000       3.696113       100.5764 
 516   0.0000       3.700208       100.6878 
 517   0.0000       3.720178       101.2312 
 518   0.0000       3.721871       101.2773 
 519   0.0000       3.726429       101.4013 
 520   0.0000       3.735997       101.6616 
 521   0.0000       3.744836       101.9022 
 522   0.0000       3.769041       102.5608 
 523   0.0000       3.780411       102.8702 
 524   0.0000       3.797474       103.3345 
 525   0.0000       3.814225       103.7903 
 526   0.0000       3.830258       104.2266 
 527   0.0000       3.839894       104.4888 
 528   0.0000       3.856779       104.9483 
 529   0.0000       3.869840       105.3037 
 530   0.0000       3.875472       105.4570 
 531   0.0000       3.885809       105.7382 
 532   0.0000       3.895095       105.9909 
 533   0.0000       3.913347       106.4876 
 534   0.0000       3.915856       106.5559 
 535   0.0000       3.937236       107.1376 
 536   0.0000       3.943252       107.3013 
 537   0.0000       3.970818       108.0514 
 538   0.0000       3.975630       108.1824 
 539   0.0000       3.983641       108.4004 
 540   0.0000       3.997133       108.7675 
 541   0.0000       4.007678       109.0545 
 542   0.0000       4.020595       109.4060 
 543   0.0000       4.031685       109.7077 
 544   0.0000       4.037419       109.8637 
 545   0.0000       4.044927       110.0681 
 546   0.0000       4.066651       110.6592 
 547   0.0000       4.078508       110.9819 
 548   0.0000       4.095849       111.4537 
 549   0.0000       4.107501       111.7708 
 550   0.0000       4.111863       111.8895 
 551   0.0000       4.121085       112.1404 
 552   0.0000       4.125086       112.2493 
 553   0.0000       4.140173       112.6598 
 554   0.0000       4.154992       113.0631 
 555   0.0000       4.156539       113.1052 
 556   0.0000       4.179683       113.7350 
 557   0.0000       4.184627       113.8695 
 558   0.0000       4.206481       114.4642 
 559   0.0000       4.216220       114.7292 
 560   0.0000       4.218745       114.7979 
 561   0.0000       4.247241       115.5733 
 562   0.0000       4.257027       115.8396 
 563   0.0000       4.270430       116.2043 
 564   0.0000       4.277060       116.3847 
 565   0.0000       4.291691       116.7829 
 566   0.0000       4.308840       117.2495 
 567   0.0000       4.330269       117.8326 
 568   0.0000       4.337466       118.0285 
 569   0.0000       4.353170       118.4558 
 570   0.0000       4.365391       118.7883 
 571   0.0000       4.382072       119.2422 
 572   0.0000       4.384869       119.3184 
 573   0.0000       4.408227       119.9540 
 574   0.0000       4.427106       120.4677 
 575   0.0000       4.432970       120.6272 
 576   0.0000       4.448171       121.0409 
 577   0.0000       4.463121       121.4477 
 578   0.0000       4.468115       121.5836 
 579   0.0000       4.476411       121.8093 
 580   0.0000       4.501923       122.5036 
 581   0.0000       4.517626       122.9309 
 582   0.0000       4.537116       123.4612 
 583   0.0000       4.546705       123.7221 
 584   0.0000       4.570348       124.3655 
 585   0.0000       4.580398       124.6390 
 586   0.0000       4.599155       125.1494 
 587   0.0000       4.612175       125.5037 
 588   0.0000       4.636873       126.1757 
 589   0.0000       4.652461       126.5999 
 590   0.0000       4.682828       127.4262 
 591   0.0000       4.706578       128.0725 
 592   0.0000       4.726569       128.6165 
 593   0.0000       4.757704       129.4637 
 594   0.0000       4.769433       129.7829 
 595   0.0000       4.784121       130.1826 
 596   0.0000       4.810135       130.8904 
 597   0.0000       4.826308       131.3305 
 598   0.0000       4.860068       132.2492 
 599   0.0000       4.881296       132.8268 
 600   0.0000       4.889722       133.0561 
 601   0.0000       4.900040       133.3369 
 602   0.0000       4.905995       133.4989 
 603   0.0000       4.919228       133.8590 
 604   0.0000       4.941734       134.4714 
 605   0.0000       4.949240       134.6757 
 606   0.0000       4.963446       135.0622 
 607   0.0000       4.973720       135.3418 
 608   0.0000       4.979020       135.4860 
 609   0.0000       4.990485       135.7980 
 610   0.0000       5.000292       136.0649 
 611   0.0000       5.032926       136.9529 
 612   0.0000       5.039495       137.1316 
 613   0.0000       5.050034       137.4184 
 614   0.0000       5.059772       137.6834 
 615   0.0000       5.064031       137.7993 
 616   0.0000       5.073858       138.0667 
 617   0.0000       5.078327       138.1883 
 618   0.0000       5.099614       138.7676 
 619   0.0000       5.114604       139.1754 
 620   0.0000       5.117469       139.2534 
 621   0.0000       5.131172       139.6263 
 622   0.0000       5.139334       139.8484 
 623   0.0000       5.170338       140.6921 
 624   0.0000       5.174297       140.7998 
 625   0.0000       5.184640       141.0812 
 626   0.0000       5.198285       141.4525 
 627   0.0000       5.215495       141.9208 
 628   0.0000       5.224652       142.1700 
 629   0.0000       5.256595       143.0392 
 630   0.0000       5.270950       143.4299 
 631   0.0000       5.282871       143.7542 
 632   0.0000       5.298270       144.1733 
 633   0.0000       5.301844       144.2705 
 634   0.0000       5.316291       144.6636 
 635   0.0000       5.338923       145.2795 
 636   0.0000       5.342075       145.3653 
 637   0.0000       5.351465       145.6208 
 638   0.0000       5.375191       146.2664 
 639   0.0000       5.379017       146.3705 
 640   0.0000       5.388320       146.6236 
 641   0.0000       5.411126       147.2442 
 642   0.0000       5.419521       147.4727 
 643   0.0000       5.441836       148.0799 
 644   0.0000       5.453898       148.4081 
 645   0.0000       5.457464       148.5052 
 646   0.0000       5.465328       148.7191 
 647   0.0000       5.491348       149.4272 
 648   0.0000       5.502646       149.7346 
 649   0.0000       5.504000       149.7714 
 650   0.0000       5.519014       150.1800 
 651   0.0000       5.535208       150.6207 
 652   0.0000       5.541668       150.7965 
 653   0.0000       5.559447       151.2802 
 654   0.0000       5.566542       151.4733 
 655   0.0000       5.583365       151.9311 
 656   0.0000       5.601847       152.4340 
 657   0.0000       5.608895       152.6258 
 658   0.0000       5.612757       152.7309 
 659   0.0000       5.620326       152.9368 
 660   0.0000       5.650146       153.7483 
 661   0.0000       5.659863       154.0127 
 662   0.0000       5.669214       154.2672 
 663   0.0000       5.676453       154.4641 
 664   0.0000       5.690120       154.8360 
 665   0.0000       5.700286       155.1127 
 666   0.0000       5.707177       155.3002 
 667   0.0000       5.721282       155.6840 
 668   0.0000       5.736318       156.0932 
 669   0.0000       5.741823       156.2429 
 670   0.0000       5.743146       156.2789 
 671   0.0000       5.769390       156.9931 
 672   0.0000       5.776126       157.1764 
 673   0.0000       5.785929       157.4431 
 674   0.0000       5.797534       157.7589 
 675   0.0000       5.816124       158.2648 
 676   0.0000       5.817401       158.2995 
 677   0.0000       5.828202       158.5934 
 678   0.0000       5.837081       158.8351 
 679   0.0000       5.849837       159.1822 
 680   0.0000       5.856885       159.3739 
 681   0.0000       5.862605       159.5296 
 682   0.0000       5.880003       160.0030 
 683   0.0000       5.894526       160.3982 
 684   0.0000       5.917124       161.0131 
 685   0.0000       5.921670       161.1368 
 686   0.0000       5.930219       161.3695 
 687   0.0000       5.942918       161.7150 
 688   0.0000       5.947590       161.8422 
 689   0.0000       5.955024       162.0445 
 690   0.0000       5.962428       162.2459 
 691   0.0000       5.976899       162.6397 
 692   0.0000       5.981085       162.7536 
 693   0.0000       5.996896       163.1838 
 694   0.0000       6.003267       163.3572 
 695   0.0000       6.014749       163.6696 
 696   0.0000       6.022409       163.8781 
 697   0.0000       6.032021       164.1396 
 698   0.0000       6.037912       164.2999 
 699   0.0000       6.042800       164.4329 
 700   0.0000       6.058690       164.8653 
 701   0.0000       6.065095       165.0396 
 702   0.0000       6.078512       165.4047 
 703   0.0000       6.084641       165.5715 
 704   0.0000       6.098426       165.9466 
 705   0.0000       6.108555       166.2222 
 706   0.0000       6.117494       166.4655 
 707   0.0000       6.126033       166.6978 
 708   0.0000       6.126453       166.7093 
 709   0.0000       6.134094       166.9172 
 710   0.0000       6.150141       167.3538 
 711   0.0000       6.169814       167.8892 
 712   0.0000       6.172492       167.9621 
 713   0.0000       6.182820       168.2431 
 714   0.0000       6.196806       168.6237 
 715   0.0000       6.203626       168.8092 
 716   0.0000       6.208045       168.9295 
 717   0.0000       6.216815       169.1681 
 718   0.0000       6.228082       169.4747 
 719   0.0000       6.238649       169.7623 
 720   0.0000       6.251135       170.1020 
 721   0.0000       6.255298       170.2153 
 722   0.0000       6.265150       170.4834 
 723   0.0000       6.285636       171.0409 
 724   0.0000       6.293710       171.2606 
 725   0.0000       6.302790       171.5076 
 726   0.0000       6.305543       171.5826 
 727   0.0000       6.317284       171.9020 
 728   0.0000       6.326627       172.1563 
 729   0.0000       6.331002       172.2753 
 730   0.0000       6.353966       172.9002 
 731   0.0000       6.356653       172.9733 
 732   0.0000       6.368598       173.2984 
 733   0.0000       6.381295       173.6439 
 734   0.0000       6.390675       173.8991 
 735   0.0000       6.409853       174.4210 
 736   0.0000       6.411246       174.4589 
 737   0.0000       6.415543       174.5758 
 738   0.0000       6.431135       175.0001 
 739   0.0000       6.446001       175.4046 
 740   0.0000       6.456624       175.6937 
 741   0.0000       6.460512       175.7995 
 742   0.0000       6.486361       176.5029 
 743   0.0000       6.495697       176.7569 
 744   0.0000       6.504509       176.9967 
 745   0.0000       6.517594       177.3527 
 746   0.0000       6.525072       177.5562 
 747   0.0000       6.533603       177.7884 
 748   0.0000       6.537199       177.8862 
 749   0.0000       6.547976       178.1795 
 750   0.0000       6.567665       178.7152 
 751   0.0000       6.573674       178.8788 
 752   0.0000       6.593108       179.4076 
 753   0.0000       6.599705       179.5871 
 754   0.0000       6.608158       179.8171 
 755   0.0000       6.620817       180.1616 
 756   0.0000       6.645039       180.8207 
 757   0.0000       6.645542       180.8344 
 758   0.0000       6.657426       181.1578 
 759   0.0000       6.669310       181.4812 
 760   0.0000       6.682407       181.8375 
 761   0.0000       6.694612       182.1696 
 762   0.0000       6.699157       182.2933 
 763   0.0000       6.706758       182.5002 
 764   0.0000       6.717979       182.8055 
 765   0.0000       6.726861       183.0472 
 766   0.0000       6.742689       183.4779 
 767   0.0000       6.746182       183.5730 
 768   0.0000       6.758458       183.9070 
 769   0.0000       6.779903       184.4905 
 770   0.0000       6.797131       184.9593 
 771   0.0000       6.807938       185.2534 
 772   0.0000       6.816332       185.4818 
 773   0.0000       6.824222       185.6965 
 774   0.0000       6.831040       185.8820 
 775   0.0000       6.846599       186.3054 
 776   0.0000       6.852338       186.4616 
 777   0.0000       6.860416       186.6814 
 778   0.0000       6.885821       187.3727 
 779   0.0000       6.909433       188.0152 
 780   0.0000       6.918477       188.2613 
 781   0.0000       6.931661       188.6201 
 782   0.0000       6.935878       188.7348 
 783   0.0000       6.945408       188.9942 
 784   0.0000       6.956070       189.2843 
 785   0.0000       6.968756       189.6295 
 786   0.0000       6.978511       189.8949 
 787   0.0000       6.986319       190.1074 
 788   0.0000       6.993600       190.3055 
 789   0.0000       7.001176       190.5117 
 790   0.0000       7.011762       190.7998 
 791   0.0000       7.033782       191.3989 
 792   0.0000       7.040885       191.5922 
 793   0.0000       7.058047       192.0592 
 794   0.0000       7.070559       192.3997 
 795   0.0000       7.081301       192.6920 
 796   0.0000       7.102113       193.2583 
 797   0.0000       7.119382       193.7282 
 798   0.0000       7.129041       193.9911 
 799   0.0000       7.145230       194.4316 
 800   0.0000       7.151719       194.6082 
 801   0.0000       7.166568       195.0122 
 802   0.0000       7.180318       195.3864 
 803   0.0000       7.199746       195.9150 
 804   0.0000       7.200564       195.9373 
 805   0.0000       7.218604       196.4282 
 806   0.0000       7.243463       197.1046 
 807   0.0000       7.246069       197.1756 
 808   0.0000       7.267120       197.7484 
 809   0.0000       7.278035       198.0454 
 810   0.0000       7.279440       198.0836 
 811   0.0000       7.292690       198.4442 
 812   0.0000       7.310150       198.9193 
 813   0.0000       7.327010       199.3781 
 814   0.0000       7.330998       199.4866 
 815   0.0000       7.341908       199.7835 
 816   0.0000       7.370736       200.5679 
 817   0.0000       7.376486       200.7244 
 818   0.0000       7.388297       201.0458 
 819   0.0000       7.410852       201.6595 
 820   0.0000       7.417168       201.8314 
 821   0.0000       7.439164       202.4299 
 822   0.0000       7.452933       202.8046 
 823   0.0000       7.456096       202.8907 
 824   0.0000       7.473696       203.3696 
 825   0.0000       7.488034       203.7598 
 826   0.0000       7.510985       204.3843 
 827   0.0000       7.516982       204.5475 
 828   0.0000       7.519591       204.6185 
 829   0.0000       7.540380       205.1842 
 830   0.0000       7.541502       205.2147 
 831   0.0000       7.552634       205.5176 
 832   0.0000       7.573907       206.0965 
 833   0.0000       7.592535       206.6034 
 834   0.0000       7.593840       206.6389 
 835   0.0000       7.600901       206.8310 
 836   0.0000       7.616608       207.2584 
 837   0.0000       7.630690       207.6416 
 838   0.0000       7.655545       208.3180 
 839   0.0000       7.666167       208.6070 
 840   0.0000       7.676207       208.8802 
 841   0.0000       7.689513       209.2423 
 842   0.0000       7.703073       209.6113 
 843   0.0000       7.709325       209.7814 
 844   0.0000       7.735012       210.4804 
 845   0.0000       7.738049       210.5630 
 846   0.0000       7.747833       210.8293 
 847   0.0000       7.760061       211.1620 
 848   0.0000       7.773098       211.5167 
 849   0.0000       7.784695       211.8323 
 850   0.0000       7.794272       212.0929 
 851   0.0000       7.807296       212.4473 
 852   0.0000       7.814679       212.6482 
 853   0.0000       7.831383       213.1028 
 854   0.0000       7.834858       213.1973 
 855   0.0000       7.848983       213.5817 
 856   0.0000       7.856227       213.7788 
 857   0.0000       7.866510       214.0586 
 858   0.0000       7.881994       214.4799 
 859   0.0000       7.895610       214.8505 
 860   0.0000       7.909622       215.2318 
 861   0.0000       7.915769       215.3990 
 862   0.0000       7.916714       215.4247 
 863   0.0000       7.934481       215.9082 
 864   0.0000       7.943305       216.1483 
 865   0.0000       7.948397       216.2869 
 866   0.0000       7.956850       216.5169 
 867   0.0000       7.972494       216.9426 
 868   0.0000       7.973849       216.9795 
 869   0.0000       7.990344       217.4283 
 870   0.0000       7.997888       217.6336 
 871   0.0000       8.008637       217.9261 
 872   0.0000       8.019751       218.2285 
 873   0.0000       8.028335       218.4621 
 874   0.0000       8.048778       219.0184 
 875   0.0000       8.056289       219.2228 
 876   0.0000       8.070057       219.5974 
 877   0.0000       8.077819       219.8086 
 878   0.0000       8.082183       219.9274 
 879   0.0000       8.095915       220.3010 
 880   0.0000       8.108509       220.6437 
 881   0.0000       8.117063       220.8765 
 882   0.0000       8.128717       221.1936 
 883   0.0000       8.146037       221.6649 
 884   0.0000       8.159565       222.0330 
 885   0.0000       8.166687       222.2269 
 886   0.0000       8.190009       222.8615 
 887   0.0000       8.194394       222.9808 
 888   0.0000       8.211708       223.4519 
 889   0.0000       8.216730       223.5886 
 890   0.0000       8.232216       224.0100 
 891   0.0000       8.244082       224.3329 
 892   0.0000       8.248678       224.4579 
 893   0.0000       8.273011       225.1201 
 894   0.0000       8.282921       225.3897 
 895   0.0000       8.288764       225.5487 
 896   0.0000       8.302283       225.9166 
 897   0.0000       8.319733       226.3914 
 898   0.0000       8.331822       226.7204 
 899   0.0000       8.341056       226.9717 
 900   0.0000       8.347619       227.1503 
 901   0.0000       8.366996       227.6775 
 902   0.0000       8.376628       227.9396 
 903   0.0000       8.404963       228.7107 
 904   0.0000       8.409948       228.8463 
 905   0.0000       8.426319       229.2918 
 906   0.0000       8.429560       229.3800 
 907   0.0000       8.446650       229.8450 
 908   0.0000       8.461274       230.2430 
 909   0.0000       8.483484       230.8473 
 910   0.0000       8.491776       231.0730 
 911   0.0000       8.502576       231.3668 
 912   0.0000       8.529325       232.0947 
 913   0.0000       8.540899       232.4097 
 914   0.0000       8.543678       232.4853 
 915   0.0000       8.552106       232.7146 
 916   0.0000       8.573903       233.3078 
 917   0.0000       8.591709       233.7923 
 918   0.0000       8.600799       234.0396 
 919   0.0000       8.603932       234.1249 
 920   0.0000       8.635196       234.9756 
 921   0.0000       8.637627       235.0418 
 922   0.0000       8.659720       235.6430 
 923   0.0000       8.666764       235.8346 
 924   0.0000       8.677659       236.1311 
 925   0.0000       8.693136       236.5523 
 926   0.0000       8.703717       236.8402 
 927   0.0000       8.715676       237.1656 
 928   0.0000       8.723986       237.3917 
 929   0.0000       8.734619       237.6811 
 930   0.0000       8.754335       238.2176 
 931   0.0000       8.762590       238.4422 
 932   0.0000       8.774833       238.7753 
 933   0.0000       8.784161       239.0292 
 934   0.0000       8.791218       239.2212 
 935   0.0000       8.797342       239.3879 
 936   0.0000       8.802699       239.5336 
 937   0.0000       8.818485       239.9632 
 938   0.0000       8.826182       240.1726 
 939   0.0000       8.836125       240.4432 
 940   0.0000       8.859795       241.0873 
 941   0.0000       8.872187       241.4245 
 942   0.0000       8.885555       241.7882 
 943   0.0000       8.894742       242.0382 
 944   0.0000       8.905776       242.3385 
 945   0.0000       8.917236       242.6503 
 946   0.0000       8.927551       242.9310 
 947   0.0000       8.939453       243.2549 
 948   0.0000       8.968458       244.0442 
 949   0.0000       8.978883       244.3278 
 950   0.0000       8.998320       244.8567 
 951   0.0000       9.015578       245.3263 
 952   0.0000       9.041885       246.0422 
 953   0.0000       9.046967       246.1805 
 954   0.0000       9.061749       246.5827 
 955   0.0000       9.098411       247.5804 
 956   0.0000       9.129830       248.4353 
 957   0.0000       9.131147       248.4711 
 958   0.0000       9.146125       248.8787 
 959   0.0000       9.150146       248.9881 
 960   0.0000       9.175736       249.6845 
 961   0.0000       9.194658       250.1994 
 962   0.0000       9.203158       250.4307 
 963   0.0000       9.224597       251.0141 
 964   0.0000       9.239648       251.4236 
 965   0.0000       9.242821       251.5099 
 966   0.0000       9.260608       251.9940 
 967   0.0000       9.281934       252.5743 
 968   0.0000       9.299869       253.0623 
 969   0.0000       9.315539       253.4887 
 970   0.0000       9.331139       253.9132 
 971   0.0000       9.362249       254.7598 
 972   0.0000       9.368091       254.9187 
 973   0.0000       9.384955       255.3776 
 974   0.0000       9.393892       255.6208 
 975   0.0000       9.431864       256.6541 
 976   0.0000       9.444020       256.9849 
 977   0.0000       9.467275       257.6177 
 978   0.0000       9.492402       258.3014 
 979   0.0000       9.541623       259.6408 
 980   0.0000       9.558680       260.1049 
 981   0.0000       9.577464       260.6160 
 982   0.0000       9.586017       260.8488 
 983   0.0000       9.611025       261.5293 
 984   0.0000       9.628390       262.0018 
 985   0.0000       9.664175       262.9756 
 986   0.0000       9.692802       263.7546 
 987   0.0000       9.703106       264.0349 
 988   0.0000       9.714177       264.3362 
 989   0.0000       9.725252       264.6376 
 990   0.0000       9.771683       265.9010 
 991   0.0000       9.798587       266.6331 
 992   0.0000       9.818431       267.1731 
 993   0.0000       9.850122       268.0354 
 994   0.0000       9.867663       268.5128 
 995   0.0000       9.902163       269.4516 
 996   0.0000       9.942418       270.5470 
 997   0.0000       9.953345       270.8443 
 998   0.0000       9.967213       271.2217 
 999   0.0000      10.001841       272.1639 
 1000   0.0000      10.003062       272.1972 
 1001   0.0000      10.015261       272.5291 
 1002   0.0000      10.063464       273.8408 
 1003   0.0000      10.069188       273.9965 
 1004   0.0000      10.149861       276.1918 
 1005   0.0000      10.152885       276.2740 
 1006   0.0000      10.184745       277.1410 
 1007   0.0000      10.207109       277.7496 
 1008   0.0000      10.219106       278.0760 
 1009   0.0000      10.239893       278.6416 
 1010   0.0000      10.274611       279.5864 
 1011   0.0000      10.290954       280.0311 
 1012   0.0000      10.322216       280.8818 
 1013   0.0000      10.347318       281.5648 
 1014   0.0000      10.370241       282.1886 
 1015   0.0000      10.404542       283.1220 
 1016   0.0000      10.434209       283.9293 
 1017   0.0000      10.464867       284.7635 
 1018   0.0000      10.486880       285.3625 
 1019   0.0000      10.523864       286.3689 
 1020   0.0000      10.548275       287.0332 
 1021   0.0000      10.599578       288.4292 
 1022   0.0000      10.640392       289.5398 
 1023   0.0000      10.651284       289.8362 
 1024   0.0000      10.703016       291.2439 
 1025   0.0000      10.717473       291.6373 
 1026   0.0000      10.731660       292.0233 
 1027   0.0000      10.758797       292.7617 
 1028   0.0000      10.785886       293.4989 
 1029   0.0000      10.806982       294.0729 
 1030   0.0000      10.833715       294.8004 
 1031   0.0000      10.845331       295.1165 
 1032   0.0000      10.880583       296.0757 
 1033   0.0000      10.888564       296.2929 
 1034   0.0000      10.911696       296.9223 
 1035   0.0000      10.922335       297.2119 
 1036   0.0000      10.932720       297.4944 
 1037   0.0000      10.959165       298.2140 
 1038   0.0000      10.964191       298.3508 
 1039   0.0000      10.995317       299.1978 
 1040   0.0000      11.011022       299.6251 
 1041   0.0000      11.025339       300.0147 
 1042   0.0000      11.102026       302.1015 
 1043   0.0000      11.120488       302.6039 
 1044   0.0000      11.167398       303.8804 
 1045   0.0000      11.177872       304.1654 
 1046   0.0000      11.217470       305.2429 
 1047   0.0000      11.332544       308.3742 
 1048   0.0000      11.337467       308.5082 
 1049   0.0000      11.355310       308.9937 
 1050   0.0000      11.369623       309.3832 
 1051   0.0000      11.416873       310.6689 
 1052   0.0000      11.426272       310.9247 
 1053   0.0000      11.452304       311.6330 
 1054   0.0000      11.492381       312.7236 
 1055   0.0000      11.513586       313.3006 
 1056   0.0000      11.547987       314.2367 
 1057   0.0000      11.569273       314.8159 
 1058   0.0000      11.618385       316.1523 
 1059   0.0000      11.701001       318.4004 
 1060   0.0000      11.704723       318.5017 
 1061   0.0000      11.751483       319.7741 
 1062   0.0000      11.790462       320.8348 
 1063   0.0000      11.874594       323.1241 
 1064   0.0000      11.924029       324.4693 
 1065   0.0000      11.946103       325.0700 
 1066   0.0000      12.032122       327.4107 
 1067   0.0000      12.056834       328.0831 
 1068   0.0000      12.092537       329.0547 
 1069   0.0000      12.113051       329.6129 
 1070   0.0000      12.156388       330.7921 
 1071   0.0000      12.189260       331.6866 
 1072   0.0000      12.199355       331.9613 
 1073   0.0000      12.225401       332.6701 
 1074   0.0000      12.255384       333.4859 
 1075   0.0000      12.359350       336.3150 
 1076   0.0000      12.387579       337.0832 
 1077   0.0000      12.412552       337.7627 
 1078   0.0000      12.584627       342.4451 
 1079   0.0000      12.611884       343.1868 
 1080   0.0000      12.684822       345.1716 
 1081   0.0000      12.747495       346.8770 
 1082   0.0000      12.842043       349.4498 
 1083   0.0000      12.986190       353.3722 
 1084   0.0000      12.994544       353.5995 
 1085   0.0000      13.146419       357.7322 
 1086   0.0000      13.206459       359.3660 
 1087   0.0000      13.329503       362.7142 
 1088   0.0000      13.434157       365.5620 
 1089   0.0000      14.042258       382.1093 
 1090   0.0000      14.148143       384.9905 
 1091   0.0000      14.240972       387.5165 
 1092   0.0000      14.271034       388.3346 
 1093   0.0000      14.606831       397.4721 
 1094   0.0000      16.970772       461.7982 
 1095   0.0000      28.441237       773.9254 
 1096   0.0000      28.769751       782.8647 
[...]
      f+2     :     0.030061
      f-2     :     0.018844
      f+3     :     0.082124
      f-3     :     0.030995
      g0      :     0.001802  g :     0.034922
      g+1     :     0.003146
      g-1     :     0.002462
      g+2     :     0.002569
      g-2     :     0.003629
      g+3     :     0.000508
      g-3     :     0.003031
      g+4     :     0.008498
      g-4     :     0.009277
  5 C s       :     2.508116  s :     2.508116
      pz      :     0.751011  p :     2.604409
      px      :     0.937336
      py      :     0.916062
      dz2     :     0.041117  d :     0.516680
      dxz     :     0.049114
      dyz     :     0.074878
      dx2y2   :     0.154936
      dxy     :     0.196635
      f0      :     0.008465  f :     0.142449
      f+1     :     0.008658
      f-1     :     0.009122
      f+2     :     0.020584
      f-2     :     0.011170
      f+3     :     0.065537
      f-3     :     0.018913
      g0      :     0.000786  g :     0.017997
      g+1     :     0.001175
      g-1     :     0.001598
      g+2     :     0.001594
      g-2     :     0.001774
      g+3     :     0.000419
      g-3     :     0.001390
      g+4     :     0.004533
      g-4     :     0.004729
  6 C s       :     2.476930  s :     2.476930
      pz      :     0.701036  p :     2.580469
      px      :     0.995463
      py      :     0.883970
      dz2     :     0.056256  d :     0.668615
      dxz     :     0.151812
      dyz     :     0.039298
      dx2y2   :     0.254683
      dxy     :     0.166565
      f0      :     0.010564  f :     0.181949
      f+1     :     0.014015
      f-1     :     0.009493
      f+2     :     0.012982
      f-2     :     0.031053
      f+3     :     0.079007
      f-3     :     0.024835
      g0      :     0.001899  g :     0.030486
      g+1     :     0.003481
      g-1     :     0.001275
      g+2     :     0.001951
      g-2     :     0.002642
      g+3     :     0.000996
      g-3     :     0.003333
      g+4     :     0.007828
      g-4     :     0.007081
  7 C s       :     2.469125  s :     2.469125
      pz      :     0.721407  p :     2.548546
      px      :     0.950135
      py      :     0.877004
      dz2     :     0.052404  d :     0.624523
      dxz     :     0.066468
      dyz     :     0.083874
      dx2y2   :     0.187879
      dxy     :     0.233898
      f0      :     0.010916  f :     0.192875
      f+1     :     0.013803
      f-1     :     0.011423
      f+2     :     0.026457
      f-2     :     0.015194
      f+3     :     0.088141
      f-3     :     0.026941
      g0      :     0.001519  g :     0.032482
      g+1     :     0.002245
      g-1     :     0.002163
      g+2     :     0.002374
      g-2     :     0.002883
      g+3     :     0.001720
      g-3     :     0.002788
      g+4     :     0.006730
      g-4     :     0.010061
  8 C s       :     2.410846  s :     2.410846
      pz      :     0.645829  p :     2.515440
      px      :     0.977217
      py      :     0.892394
      dz2     :     0.077715  d :     0.947475
      dxz     :     0.197517
      dyz     :     0.145522
      dx2y2   :     0.274759
      dxy     :     0.251963
      f0      :     0.022866  f :     0.329836
      f+1     :     0.025695
      f-1     :     0.015431
      f+2     :     0.055566
      f-2     :     0.037110
      f+3     :     0.124167
      f-3     :     0.049002
      g0      :     0.003497  g :     0.054587
      g+1     :     0.004663
      g-1     :     0.003001
      g+2     :     0.004544
      g-2     :     0.004475
      g+3     :     0.002921
      g-3     :     0.004403
      g+4     :     0.011718
      g-4     :     0.015364
  9 C s       :     2.428910  s :     2.428910
      pz      :     0.824121  p :     2.531551
      px      :     0.929687
      py      :     0.777742
      dz2     :     0.195002  d :     0.902031
      dxz     :     0.193378
      dyz     :     0.126815
      dx2y2   :     0.205798
      dxy     :     0.181038
      f0      :     0.044896  f :     0.304366
      f+1     :     0.025464
      f-1     :     0.046264
      f+2     :     0.035943
      f-2     :     0.034810
      f+3     :     0.077848
      f-3     :     0.039142
      g0      :     0.003806  g :     0.046811
      g+1     :     0.004522
      g-1     :     0.003309
      g+2     :     0.006333
      g-2     :     0.004450
      g+3     :     0.003378
      g-3     :     0.003503
      g+4     :     0.008318
      g-4     :     0.009193
 10 C s       :     2.501350  s :     2.501350
      pz      :     0.837326  p :     2.589756
      px      :     0.850349
      py      :     0.902081
      dz2     :     0.074123  d :     0.597685
      dxz     :     0.122804
      dyz     :     0.099076
      dx2y2   :     0.170009
      dxy     :     0.131673
      f0      :     0.015839  f :     0.178216
      f+1     :     0.013429
      f-1     :     0.033676
      f+2     :     0.025012
      f-2     :     0.034145
      f+3     :     0.034115
      f-3     :     0.022000
      g0      :     0.002148  g :     0.027041
      g+1     :     0.001351
      g-1     :     0.003389
      g+2     :     0.001840
      g-2     :     0.003035
      g+3     :     0.005340
      g-3     :     0.003969
      g+4     :     0.002600
      g-4     :     0.003370
 11 C s       :     2.487246  s :     2.487246
      pz      :     0.785117  p :     2.578366
      px      :     0.854955
      py      :     0.938294
      dz2     :     0.116821  d :     0.637712
      dxz     :     0.119671
      dyz     :     0.093279
      dx2y2   :     0.185445
      dxy     :     0.122495
      f0      :     0.011635  f :     0.170985
      f+1     :     0.017533
      f-1     :     0.023044
      f+2     :     0.024009
      f-2     :     0.027238
      f+3     :     0.041091
      f-3     :     0.026435
      g0      :     0.002516  g :     0.026056
      g+1     :     0.002108
      g-1     :     0.001626
      g+2     :     0.000804
      g-2     :     0.003515
      g+3     :     0.005001
      g-3     :     0.003802
      g+4     :     0.003418
      g-4     :     0.003266
 12 C s       :     2.466447  s :     2.466447
      pz      :     0.790810  p :     2.580149
      px      :     0.906159
      py      :     0.883181
      dz2     :     0.089595  d :     0.537478
      dxz     :     0.083314
      dyz     :     0.096496
      dx2y2   :     0.105777
      dxy     :     0.162295
      f0      :     0.009314  f :     0.146986
      f+1     :     0.017674
      f-1     :     0.016368
      f+2     :     0.023076
      f-2     :     0.028417
      f+3     :     0.033427
      f-3     :     0.018710
      g0      :     0.001387  g :     0.018837
      g+1     :     0.001377
      g-1     :     0.001199
      g+2     :     0.002047
      g-2     :     0.001169
      g+3     :     0.004660
      g-3     :     0.002680
      g+4     :     0.002261
      g-4     :     0.002055
 13 C s       :     2.488657  s :     2.488657
      pz      :     0.764421  p :     2.574104
      px      :     0.966548
      py      :     0.843135
      dz2     :     0.058678  d :     0.617573
      dxz     :     0.155986
      dyz     :     0.080141
      dx2y2   :     0.164672
      dxy     :     0.158096
      f0      :     0.016058  f :     0.164081
      f+1     :     0.009474
      f-1     :     0.016362
      f+2     :     0.023855
      f-2     :     0.024937
      f+3     :     0.049374
      f-3     :     0.024023
      g0      :     0.001898  g :     0.024610
      g+1     :     0.002501
      g-1     :     0.001293
      g+2     :     0.002685
      g-2     :     0.001421
      g+3     :     0.002770
      g-3     :     0.003190
      g+4     :     0.004301
      g-4     :     0.004551
 14 C s       :     2.509698  s :     2.509698
      pz      :     0.825396  p :     2.567417
      px      :     0.944542
      py      :     0.797479
      dz2     :     0.084311  d :     0.551762
      dxz     :     0.152012
      dyz     :     0.083765
      dx2y2   :     0.122294
      dxy     :     0.109380
      f0      :     0.031344  f :     0.157078
      f+1     :     0.019628
      f-1     :     0.015177
      f+2     :     0.023481
      f-2     :     0.019545
      f+3     :     0.032974
      f-3     :     0.014930
      g0      :     0.002826  g :     0.022598
      g+1     :     0.002829
      g-1     :     0.001272
      g+2     :     0.002718
      g-2     :     0.002116
      g+3     :     0.001649
      g-3     :     0.002220
      g+4     :     0.003925
      g-4     :     0.003043
 15 H s       :     0.734313  s :     0.734313
      pz      :     0.060039  p :     0.220722
      px      :     0.087246
      py      :     0.073437
      dz2     :     0.007094  d :     0.084798
      dxz     :     0.018806
      dyz     :     0.006405
      dx2y2   :     0.032176
      dxy     :     0.020317
      f0      :     0.001316  f :     0.015186
      f+1     :     0.001589
      f-1     :     0.000639
      f+2     :     0.001154
      f-2     :     0.001764
      f+3     :     0.005527
      f-3     :     0.003196
 16 H s       :     0.782249  s :     0.782249
      pz      :     0.077709  p :     0.230202
      px      :     0.086206
      py      :     0.066286
      dz2     :     0.006166  d :     0.085001
      dxz     :     0.019959
      dyz     :     0.008583
      dx2y2   :     0.031285
      dxy     :     0.019008
      f0      :     0.001726  f :     0.017794
      f+1     :     0.001892
      f-1     :     0.000996
      f+2     :     0.000675
      f-2     :     0.002412
      f+3     :     0.005718
      f-3     :     0.004374
 17 H s       :     0.751444  s :     0.751444
      pz      :     0.069549  p :     0.247369
      px      :     0.074111
      py      :     0.103709
      dz2     :     0.009923  d :     0.098305
      dxz     :     0.003813
      dyz     :     0.025305
      dx2y2   :     0.016782
      dxy     :     0.042481
      f0      :     0.001682  f :     0.021454
      f+1     :     0.000306
      f-1     :     0.003121
      f+2     :     0.003375
      f-2     :     0.001366
      f+3     :     0.006978
      f-3     :     0.004626
 18 H s       :     0.724055  s :     0.724055
      pz      :     0.054557  p :     0.178084
      px      :     0.078368
      py      :     0.045159
      dz2     :     0.004761  d :     0.068976
      dxz     :     0.016432
      dyz     :     0.005989
      dx2y2   :     0.024703
      dxy     :     0.017091
      f0      :     0.001233  f :     0.011606
      f+1     :     0.000955
      f-1     :     0.000552
      f+2     :     0.000478
      f-2     :     0.001636
      f+3     :     0.004571
      f-3     :     0.002181
 19 H s       :     0.733369  s :     0.733369
      pz      :     0.050010  p :     0.157923
      px      :     0.070678
      py      :     0.037235
      dz2     :     0.012215  d :     0.056819
      dxz     :     0.012562
      dyz     :     0.007324
      dx2y2   :     0.012250
      dxy     :     0.012468
      f0      :     0.000536  f :     0.007799
      f+1     :     0.001772
      f-1     :     0.000368
      f+2     :     0.001361
      f-2     :     0.001530
      f+3     :     0.001284
      f-3     :     0.000947
 20 H s       :     0.765250  s :     0.765250
      pz      :     0.070103  p :     0.242759
      px      :     0.069697
      py      :     0.102959
      dz2     :     0.008229  d :     0.095932
      dxz     :     0.003545
      dyz     :     0.028256
      dx2y2   :     0.023227
      dxy     :     0.032676
      f0      :     0.002044  f :     0.021518
      f+1     :     0.000484
      f-1     :     0.003293
      f+2     :     0.002992
      f-2     :     0.001211
      f+3     :     0.006066
      f-3     :     0.005429
 21 H s       :     0.792746  s :     0.792746
      pz      :     0.114606  p :     0.323198
      px      :     0.108742
      py      :     0.099850
      dz2     :     0.010726  d :     0.125216
      dxz     :     0.030004
      dyz     :     0.014819
      dx2y2   :     0.044313
      dxy     :     0.025354
      f0      :     0.003425  f :     0.037671
      f+1     :     0.004652
      f-1     :     0.002817
      f+2     :     0.001209
      f-2     :     0.005321
      f+3     :     0.008904
      f-3     :     0.011344
 22 H s       :     0.771388  s :     0.771388
      pz      :     0.082140  p :     0.256858
      px      :     0.100689
      py      :     0.074030
      dz2     :     0.019622  d :     0.100109
      dxz     :     0.016985
      dyz     :     0.014700
      dx2y2   :     0.032503
      dxy     :     0.016299
      f0      :     0.001876  f :     0.023206
      f+1     :     0.003497
      f-1     :     0.001745
      f+2     :     0.004099
      f-2     :     0.005230
      f+3     :     0.003816
      f-3     :     0.002944
 23 H s       :     0.749876  s :     0.749876
      pz      :     0.054679  p :     0.174984
      px      :     0.044317
      py      :     0.075987
      dz2     :     0.016185  d :     0.063249
      dxz     :     0.012027
      dyz     :     0.013508
      dx2y2   :     0.010898
      dxy     :     0.010631
      f0      :     0.001338  f :     0.009937
      f+1     :     0.000823
      f-1     :     0.002285
      f+2     :     0.002052
      f-2     :     0.001863
      f+3     :     0.000665
      f-3     :     0.000911


                      *****************************
                      * MAYER POPULATION ANALYSIS *
                      *****************************

  NA   - Mulliken gross atomic population
  ZA   - Total nuclear charge
  QA   - Mulliken gross atomic charge
  VA   - Mayer's total valence
  BVA  - Mayer's bonded valence
  FA   - Mayer's free valence

  ATOM       NA         ZA         QA         VA         BVA        FA
  0 O      8.1134     8.0000    -0.1134     2.2200     2.2200    -0.0000
  1 N      6.7919     7.0000     0.2081     4.2795     4.2795    -0.0000
  2 O      8.3360     8.0000    -0.3360     2.0366     2.0366    -0.0000
  3 C      5.8760     6.0000     0.1240     3.6600     3.6600    -0.0000
  4 C      6.0533     6.0000    -0.0533     3.8505     3.8505     0.0000
  5 C      6.1886     6.0000    -0.1886     3.8393     3.8393     0.0000
  6 C      6.0560     6.0000    -0.0560     3.7197     3.7197     0.0000
  7 C      6.0802     6.0000    -0.0802     3.6433     3.6433    -0.0000
  8 C      5.7113     6.0000     0.2887     3.3161     3.3161     0.0000
  9 C      5.9283     6.0000     0.0717     3.3976     3.3976     0.0000
 10 C      6.0256     6.0000    -0.0256     3.6491     3.6491    -0.0000
 11 C      6.0951     6.0000    -0.0951     3.8657     3.8657     0.0000
 12 C      6.2750     6.0000    -0.2750     3.7952     3.7952     0.0000
 13 C      6.1339     6.0000    -0.1339     3.8154     3.8154     0.0000
 14 C      5.9521     6.0000     0.0479     3.6126     3.6126     0.0000
 15 H      0.9760     1.0000     0.0240     1.0204     1.0204     0.0000
 16 H      0.9232     1.0000     0.0768     1.0264     1.0264     0.0000
 17 H      0.9532     1.0000     0.0468     1.0075     1.0075    -0.0000
 18 H      0.9421     1.0000     0.0579     1.0182     1.0182     0.0000
 19 H      0.9950     1.0000     0.0050     1.0188     1.0188     0.0000
 20 H      0.9227     1.0000     0.0773     1.0122     1.0122     0.0000
 21 H      0.8066     1.0000     0.1934     0.9996     0.9996     0.0000
 22 H      0.9295     1.0000     0.0705     1.0209     1.0209     0.0000
 23 H      0.9352     1.0000     0.0648     1.0091     1.0091     0.0000

  Mayer bond orders larger than 0.1
B(  0-O ,  1-N ) :   1.7950 B(  0-O ,  2-O ) :   0.2645 B(  1-N ,  2-O ) :   1.5963 
B(  1-N ,  3-C ) :   0.8437 B(  3-C ,  4-C ) :   1.4265 B(  3-C ,  8-C ) :   1.1537 
B(  4-C ,  5-C ) :   1.2787 B(  4-C , 15-H ) :   0.9484 B(  5-C ,  6-C ) :   1.2604 
B(  5-C , 16-H ) :   1.0047 B(  6-C ,  7-C ) :   1.3650 B(  6-C , 17-H ) :   0.9956 
B(  7-C ,  8-C ) :   1.0743 B(  7-C , 18-H ) :   0.9801 B(  8-C ,  9-C ) :   0.9657 
B(  9-C , 10-C ) :   1.1672 B(  9-C , 14-C ) :   1.1695 B( 10-C , 11-C ) :   1.3587 
B( 10-C , 19-H ) :   0.9565 B( 11-C , 12-C ) :   1.3327 B( 11-C , 20-H ) :   0.9808 
B( 12-C , 13-C ) :   1.2828 B( 12-C , 21-H ) :   1.0113 B( 13-C , 14-C ) :   1.3527 
B( 13-C , 22-H ) :   1.0054 B( 14-C , 23-H ) :   0.9497 

-------
TIMINGS
-------

Total SCF time: 0 days 0 hours 5 min 1 sec 

Total time                  ....     301.298 sec
Sum of individual times     ....     284.412 sec  ( 94.4%)

Fock matrix formation       ....     255.641 sec  ( 84.8%)
  Split-RI-J                ....     161.508 sec  ( 63.2% of F)
  XC integration            ....      89.945 sec  ( 35.2% of F)
    Basis function eval.    ....       8.317 sec  (  9.2% of XC)
    Density eval.           ....      43.024 sec  ( 47.8% of XC)
    XC-Functional eval.     ....       0.641 sec  (  0.7% of XC)
    XC-Potential eval.      ....      36.097 sec  ( 40.1% of XC)
Diagonalization             ....       6.801 sec  (  2.3%)
Density matrix formation    ....       0.333 sec  (  0.1%)
Population analysis         ....       0.451 sec  (  0.1%)
Initial guess               ....       9.499 sec  (  3.2%)
Orbital Transformation      ....       0.000 sec  (  0.0%)
Orbital Orthonormalization  ....       0.000 sec  (  0.0%)
DIIS solution               ....       4.295 sec  (  1.4%)
SOSCF solution              ....       0.003 sec  (  0.0%)
Grid generation             ....       7.389 sec  (  2.5%)

-------------------------   --------------------
FINAL SINGLE POINT ENERGY      -661.577342398027
-------------------------   --------------------


                            ***************************************
                            *     ORCA property calculations      *
                            ***************************************

                                    ---------------------
                                    Active property flags
                                    ---------------------
   (+) Dipole Moment


------------------------------------------------------------------------------
                       ORCA ELECTRIC PROPERTIES CALCULATION
------------------------------------------------------------------------------

Dipole Moment Calculation                       ... on
Quadrupole Moment Calculation                   ... off
Polarizability Calculation                      ... off
GBWName                                         ... /project/RDS-FSC-JSPI0204HON-RW/molecule87.gbw
Electron density file                           ... /project/RDS-FSC-JSPI0204HON-RW/molecule87.scfp.tmp
The origin for moment calculation is the CENTER OF MASS  = (-0.222266, -1.953836  0.059078)

-------------
DIPOLE MOMENT
-------------
                                X             Y             Z
Electronic contribution:      3.36335       4.14398       0.32413
Nuclear contribution   :     -3.22754      -5.31148      -0.20354
                        -----------------------------------------
Total Dipole Moment    :      0.13582      -1.16750       0.12058
                        -----------------------------------------
Magnitude (a.u.)       :      1.18154
Magnitude (Debye)      :      3.00324



--------------------
Rotational spectrum 
--------------------
 
Rotational constants in cm-1:     0.039212     0.026225     0.018195 
Rotational constants in MHz :  1175.556595   786.204161   545.487251 

 Dipole components along the rotational axes: 
x,y,z [a.u.] :    -0.636296    -0.993072     0.070558 
x,y,z [Debye]:    -1.617337    -2.524189     0.179344 

 

Timings for individual modules:

Sum of individual times         ...      304.578 sec (=   5.076 min)
GTO integral calculation        ...        3.231 sec (=   0.054 min)   1.1 %
SCF iterations                  ...      301.347 sec (=   5.022 min)  98.9 %
                             ****ORCA TERMINATED NORMALLY****
TOTAL RUN TIME: 0 days 0 hours 5 minutes 7 seconds 506 msec
